! TOUCHSTONE file generated by CST MICROWAVE STUDIO
! Date and time: Thu Jan  2 20:27:47 2025
! Project name: test_grating.cst
! Parameters = {airCoaxOuterDiameter=3; chamferAngle=45; chamferWidth=23; connectorLength=10; drillingHoleDiameter=4.1; feedLength=130; flareDiameter=130; flareLength=70; gratingDistance=60.81; gratingGap=5.2; outletLength=30; polarizerLength=126; probe1Diameter=1.3; probe1Distance=15.62; probe1Length=12.32; probe2Diameter=1.3; probe2Distance=15.62; probe2Length=12.32; smaInnerDiameter=1.3; smaOuterDiameter=4.1; transitionCoefficient=1.33; waveguideFeedLength=30; waveguideSide=50; waveguideThickness=3; wireCount=9; wireDiameter=2}
! Header version: 2024
! Port assignment regex: !\s*Touchstone port\s*([0-9]+)\s*=\s*(CST MWS port|CST DES external port|CST DES block port)\s*(.+)\s* \(\"(.*)\"\)(\s*mode\s*([0-9]+))?.*
! Touchstone port assignment:
! Touchstone port 1 = CST MWS port 1 ("Input1")
! Touchstone port 2 = CST MWS port 2 ("Input2")
# GHz S MA R 50
4.7                    0.8253589        144.5777        0.1740117       -128.9534        0.1873859        -126.161        0.9018121       -173.0535
4.701                  0.8184623        143.4266        0.1768699       -130.6603        0.1906943        -128.211        0.9024921       -174.4737
4.702                  0.8114582        142.2969        0.1796447       -132.3646        0.1938534       -130.2521        0.9028642       -175.8867
4.703                    0.80436        141.1891        0.1823351       -134.0658        0.1968612       -132.2836          0.90293       -177.2922
4.704                  0.7971806        140.1031          0.18494       -135.7635        0.1997163       -134.3046        0.9026911         -178.69
4.705                  0.7899332        139.0392        0.1874587       -137.4572        0.2024172       -136.3144        0.9021497        179.9204
4.706                  0.7826308        137.9976        0.1898904       -139.1467        0.2049631       -138.3121        0.9013084        178.5393
4.707                  0.7752863        136.9783        0.1922343       -140.8314        0.2073534        -140.297        0.9001703         177.167
4.708                  0.7679126        135.9813          0.19449       -142.5112         0.209588       -142.2684        0.8987384        175.8038
4.709                  0.7605224        135.0067        0.1966569       -144.1856        0.2116669       -144.2256        0.8970167        174.4501
4.71                   0.7531282        134.0545        0.1987346       -145.8543        0.2135905       -146.1678        0.8950093        173.1063
4.711                   0.745742        133.1246        0.2007228       -147.5171        0.2153597       -148.0942        0.8927204        171.7727
4.712                  0.7383756        132.2169        0.2026213       -149.1737        0.2169756       -150.0043        0.8901549        170.4496
4.713                  0.7310406        131.3312        0.2044299       -150.8237        0.2184397       -151.8974        0.8873183        169.1375
4.714                   0.723748        130.4673        0.2061486       -152.4669         0.219754       -153.7726        0.8842158        167.8366
4.715                  0.7165086        129.6249        0.2077775        -154.103        0.2209204       -155.6294        0.8808536        166.5474
4.716                  0.7093321        128.8037        0.2093167       -155.7318        0.2219415        -157.467        0.8772381        165.2702
4.717                  0.7022282        128.0034        0.2107664        -157.353        0.2228203       -159.2848        0.8733758        164.0054
4.718                  0.6952058        127.2235        0.2121269       -158.9663        0.2235597       -161.0822        0.8692741        162.7534
4.719                  0.6882733        126.4635        0.2133986       -160.5715        0.2241634       -162.8584        0.8649401        161.5145
4.72                    0.681438        125.7229         0.214582       -162.1684         0.224635       -164.6128         0.860382        160.2892
4.721                   0.674707        125.0011        0.2156777       -163.7566        0.2249787       -166.3448        0.8556075        159.0778
4.722                  0.6680864        124.2974        0.2166862        -165.336        0.2251987       -168.0538        0.8506256        157.8807
4.723                  0.6615814        123.6112        0.2176083       -166.9063        0.2252998       -169.7392        0.8454449        156.6983
4.724                  0.6551968        122.9418        0.2184447       -168.4672        0.2252868       -171.4003        0.8400745        155.5309
4.725                  0.6489364        122.2883        0.2191964       -170.0185        0.2251649       -173.0367        0.8345242         154.379
4.726                  0.6428031          121.65        0.2198643         -171.56        0.2249393       -174.6478        0.8288036        153.2429
4.727                  0.6367992        121.0261        0.2204495       -173.0914        0.2246158       -176.2331         0.822923         152.123
4.728                  0.6309259        120.4156         0.220953       -174.6124           0.2242       -177.7921        0.8168924        151.0196
4.729                  0.6251841        119.8177         0.221376       -176.1229        0.2236978       -179.3244        0.8107229        149.9331
4.73                   0.6195732        119.2315        0.2217198       -177.6225        0.2231155        179.1703         0.804425        148.8638
4.731                  0.6140927         118.656        0.2219857        -179.111        0.2224591        177.6924        0.7980099         147.812
4.732                  0.6087408        118.0905         0.222175        179.4119         0.221735        176.2423        0.7914888        146.7782
4.733                   0.603515        117.5339        0.2222893        177.9465        0.2209495          174.82        0.7848732        145.7624
4.734                  0.5984124        116.9853        0.2223302        176.4929        0.2201092        173.4258        0.7781748        144.7651
4.735                  0.5934293        116.4439        0.2222991        175.0515        0.2192204        172.0598         0.771405        143.7864
4.736                  0.5885617        115.9089        0.2221978        173.6225        0.2182897         170.722        0.7645754        142.8265
4.737                  0.5838047        115.3794        0.2220281        172.2062        0.2173234        169.4124         0.757698        141.8857
4.738                  0.5791531        114.8545        0.2217917         170.803        0.2163279        168.1307        0.7507844        140.9641
4.739                  0.5746015        114.3337        0.2214906         169.413        0.2153093        166.8768        0.7438464        140.0618
4.74                   0.5701438         113.816        0.2211267        168.0366        0.2142739        165.6504        0.7368954        139.1789
4.741                  0.5657737        113.3009         0.220702         166.674        0.2132276        164.4511        0.7299427        138.3154
4.742                  0.5614848        112.7878        0.2202186        165.3256        0.2121761        163.2783        0.7229998        137.4713
4.743                  0.5572704        112.2761        0.2196787        163.9916        0.2111249        162.1315        0.7160774        136.6465
4.744                  0.5531237        111.7652        0.2190846        162.6723        0.2100793          161.01        0.7091864        135.8409
4.745                  0.5490377        111.2548        0.2184384         161.368        0.2090443        159.9131         0.702337        135.0543
4.746                  0.5450057        110.7445        0.2177426        160.0791        0.2080245        158.8398        0.6955391        134.2866
4.747                  0.5410207        110.2338        0.2169997        158.8057        0.2070244        157.7893        0.6888024        133.5373
4.748                  0.5370759        109.7226        0.2162119        157.5483        0.2060477        156.7604        0.6821357        132.8063
4.749                  0.5331648        109.2107         0.215382        156.3071        0.2050981        155.7521        0.6755474         132.093
4.75                   0.5292809        108.6978        0.2145126        155.0823        0.2041788        154.7633        0.6690456         131.397
4.751                  0.5254179        108.1839        0.2136063        153.8743        0.2032926        153.7926        0.6626374        130.7179
4.752                  0.5215697        107.6689        0.2126659        152.6832        0.2024417        152.8388        0.6563293        130.0549
4.753                  0.5177307        107.1528        0.2116942        151.5095        0.2016282        151.9006        0.6501274        129.4075
4.754                  0.5138953        106.6358         0.210694        150.3533        0.2008535        150.9766        0.6440362         128.775
4.755                  0.5100587        106.1179        0.2096683        149.2149        0.2001187        150.0654        0.6380606        128.1566
4.756                  0.5062159        105.5992          0.20862        148.0945        0.1994245        149.1658        0.6322035        127.5516
4.757                  0.5023626        105.0799        0.2075522        146.9923         0.198771        148.2763         0.626468        126.9591
4.758                  0.4984949        104.5604        0.2064678        145.9085        0.1981581        147.3955        0.6208557        126.3783
4.759                  0.4946092        104.0408        0.2053701        144.8432        0.1975854        146.5223        0.6153675        125.8082
4.76                   0.4907023        103.5214        0.2042621        143.7966         0.197052        145.6552        0.6100036         125.248
4.761                  0.4867713        103.0026        0.2031471        142.7688        0.1965566        144.7932        0.6047631        124.6966
4.762                   0.482814        102.4848        0.2020282        141.7598        0.1960978         143.935        0.5996446        124.1532
4.763                  0.4788283        101.9682        0.2009087        140.7698        0.1956738        143.0796        0.5946455        123.6168
4.764                  0.4748127        101.4534        0.1997917        139.7986        0.1952826         142.226        0.5897628        123.0864
4.765                  0.4707659        100.9407        0.1986807        138.8462        0.1949221        141.3732        0.5849925        122.5611
4.766                  0.4666872        100.4306        0.1975786        137.9126        0.1945899        140.5206        0.5803302          122.04
4.767                   0.462576        99.92339         0.196489        136.9975        0.1942836        139.6672        0.5757702        121.5223
4.768                  0.4584324        99.41966        0.1954149        136.1008        0.1940005        138.8126        0.5713069        121.0069
4.769                  0.4542564        98.91981        0.1943595        135.2223        0.1937382        137.9561        0.5669338        120.4933
4.77                   0.4500485         98.4243         0.193326        134.3615        0.1934939        137.0974        0.5626441        119.9806
4.771                  0.4458097        97.93359        0.1923173         133.518        0.1932651         136.236        0.5584303        119.4681
4.772                   0.441541        97.44811        0.1913366        132.6916        0.1930491        135.3719        0.5542848        118.9551
4.773                  0.4372436         96.9683        0.1903868        131.8815        0.1928435        134.5047        0.5501997        118.4412
4.774                  0.4329193        96.49461        0.1894706        131.0872        0.1926458        133.6344        0.5461669        117.9258
4.775                  0.4285695        96.02745        0.1885908         130.308        0.1924539         132.761        0.5421779        117.4085
4.776                  0.4241964        95.56725        0.1877501        129.5432        0.1922654        131.8846        0.5382246         116.889
4.777                   0.419802         95.1144        0.1869507         128.792        0.1920787        131.0053        0.5342985         116.367
4.778                  0.4153883        94.66928        0.1861951        128.0534        0.1918917        130.1233        0.5303915        115.8424
4.779                  0.4109578        94.23229        0.1854853        127.3265         0.191703        129.2389        0.5264953        115.3149
4.78                   0.4065127        93.80372        0.1848233        126.6103        0.1915112        128.3522        0.5226023        114.7847
4.781                  0.4020554        93.38396        0.1842108        125.9036        0.1913152        127.4638        0.5187048        114.2518
4.782                  0.3975883        92.97333        0.1836493        125.2053         0.191114        126.5738        0.5147955        113.7163
4.783                  0.3931138        92.57211        0.1831401        124.5142        0.1909071        125.6826        0.5108677        113.1786
4.784                  0.3886343        92.18058        0.1826843         123.829        0.1906938        124.7907        0.5069149        112.6388
4.785                  0.3841522        91.79899        0.1822827        123.1484        0.1904741        123.8984        0.5029313        112.0973
4.786                  0.3796695        91.42763        0.1819359        122.4711        0.1902479        123.0061        0.4989116        111.5548
4.787                  0.3751885        91.06666        0.1816441        121.7956        0.1900155        122.1141         0.494851        111.0116
4.788                  0.3707113        90.71636        0.1814073        121.1206        0.1897772        121.2227        0.4907454        110.4683
4.789                  0.3662398        90.37689        0.1812254        120.4447        0.1895338        120.3323        0.4865914        109.9257
4.79                   0.3617758        90.04846        0.1810977        119.7665         0.189286        119.4432        0.4823862        109.3844
4.791                  0.3573209        89.73125        0.1810235        119.0845        0.1890349        118.5555        0.4781277        108.8451
4.792                  0.3528765        89.42539        0.1810018        118.3974        0.1887815        117.6695        0.4738147        108.3089
4.793                  0.3484442         89.1311        0.1810311        117.7039        0.1885272        116.7853        0.4694464        107.7763
4.794                  0.3440249        88.84857          0.18111        117.0026        0.1882733         115.903        0.4650231        107.2484
4.795                  0.3396198        88.57792        0.1812365        116.2923        0.1880213        115.0225        0.4605456        106.7262
4.796                  0.3352296        88.31934        0.1814086        115.5717        0.1877727        114.1438        0.4560156        106.2105
4.797                  0.3308551        88.07307        0.1816239        114.8396        0.1875291        113.2669        0.4514353        105.7023
4.798                  0.3264966        87.83928          0.18188        114.0949         0.187292        112.3915         0.446808        105.2026
4.799                  0.3221547        87.61825         0.182174        113.3366        0.1870632        111.5173        0.4421375        104.7125
4.8                    0.3178294        87.41022        0.1825031        112.5638         0.186844         110.644        0.4374281         104.233
4.801                  0.3135211        87.21549        0.1828641        111.7754         0.186636        109.7713        0.4326851        103.7649
4.802                  0.3092296        87.03438        0.1832538        110.9708        0.1864405        108.8985        0.4279142        103.3093
4.803                  0.3049549        86.86736        0.1836687        110.1492        0.1862589        108.0253        0.4231219        102.8672
4.804                  0.3006969        86.71481        0.1841053        109.3099        0.1860923        107.1509        0.4183152        102.4394
4.805                  0.2964554        86.57726        0.1845601        108.4523        0.1859416        106.2747        0.4135013        102.0268
4.806                  0.2922303        86.45523        0.1850291        107.5759        0.1858076         105.396        0.4086883        101.6301
4.807                  0.2880215        86.34941        0.1855087        106.6804         0.185691         104.514        0.4038844        101.2502
4.808                  0.2838288        86.26052        0.1859949        105.7654         0.185592        103.6278        0.3990982        100.8877
4.809                  0.2796524        86.18931        0.1864839        104.8306        0.1855108        102.7365        0.3943387         100.543
4.81                   0.2754924        86.13668        0.1869718        103.8758        0.1854474        101.8394        0.3896147        100.2167
4.811                   0.271349        86.10369        0.1874545         102.901        0.1854012        100.9355        0.3849357        99.90913
4.812                  0.2672229        86.09134        0.1879282         101.906        0.1853717        100.0237        0.3803106        99.62033
4.813                  0.2631149        86.10086        0.1883889        100.8908        0.1853579        99.10329        0.3757486        99.35043
4.814                  0.2590258        86.13353        0.1888327        99.85551        0.1853587         98.1732        0.3712587        99.09932
4.815                  0.2549573        86.19081        0.1892558        98.80026        0.1853726        97.23256        0.3668493        98.86668
4.816                   0.250911        86.27418        0.1896544         97.7252        0.1853978        96.28043        0.3625288         98.6521
4.817                  0.2468892        86.38533        0.1900248         96.6305        0.1854323        95.31596        0.3583051        98.45486
4.818                  0.2428944        86.52598        0.1903633        95.51646        0.1854739        94.33827        0.3541853         98.2742
4.819                  0.2389298        86.69804        0.1906664        94.38337        0.1855201         93.3466        0.3501759        98.10903
4.82                   0.2349992        86.90341        0.1909305        93.23152        0.1855681        92.34012        0.3462826         97.9582
4.821                  0.2311068        87.14421        0.1911523        92.06124        0.1856149        91.31817        0.3425105        97.82024
4.822                  0.2272575        87.42263        0.1913285        90.87303        0.1856575        90.28014        0.3388632        97.69364
4.823                  0.2234569        87.74085        0.1914559        89.66718        0.1856925        89.22535        0.3353439        97.57659
4.824                  0.2197114        88.10115        0.1915316        88.44421        0.1857164        88.15335         0.331954        97.46718
4.825                  0.2160278         88.5059        0.1915526        87.20452        0.1857255        87.06362        0.3286943        97.36342
4.826                  0.2124141        88.95733         0.191516        85.94861        0.1857162        85.95583        0.3255642        97.26309
4.827                  0.2088787        89.45774        0.1914193          84.677        0.1856846        84.82961        0.3225617         97.1639
4.828                  0.2054309        90.00931        0.1912599        83.39016        0.1856266        83.68476        0.3196838        97.06356
4.829                  0.2020809        90.61401        0.1910353        82.08858        0.1855385        82.52107         0.316926         96.9597
4.83                   0.1988396         91.2737        0.1907435         80.7728        0.1854161        81.33839        0.3142828        96.84987
4.831                  0.1957185        91.98989        0.1903821        79.44341        0.1852555        80.13668        0.3117472        96.73168
4.832                    0.19273        92.76384        0.1899493         78.1009        0.1850526        78.91601        0.3093113        96.60281
4.833                  0.1898868        93.59623        0.1894433        76.74585        0.1848035        77.67642        0.3069659        96.46098
4.834                  0.1872025        94.48734        0.1888624         75.3788        0.1845043        76.41806        0.3047012        96.30404
4.835                  0.1846907        95.43673        0.1882049        74.00036        0.1841512        75.14109        0.3025058        96.12984
4.836                  0.1823655        96.44331        0.1874696         72.6111        0.1837403        73.84583         0.300368        95.93652
4.837                   0.180241        97.50515        0.1866552        71.21155        0.1832681        72.53255        0.2982752        95.72229
4.838                  0.1783309        98.61954        0.1857606        69.80232         0.182731        71.20161        0.2962142        95.48557
4.839                  0.1766489        99.78271        0.1847848        68.38405        0.1821256        69.85342        0.2941712        95.22502
4.84                   0.1752077        100.9901        0.1837271         66.9573        0.1814488        68.48842        0.2921322        94.93937
4.841                  0.1740195         102.236        0.1825868        65.52269        0.1806974        67.10714        0.2900827        94.62759
4.842                  0.1730948        103.5141        0.1813634        64.08085        0.1798686        65.71008        0.2880081        94.28892
4.843                  0.1724432        104.8169        0.1800564         62.6324        0.1789595        64.29785         0.285894        93.92281
4.844                  0.1720724        106.1365        0.1786658          61.178        0.1779678        62.87103        0.2837258        93.52886
4.845                  0.1719882        107.4642        0.1771914        59.71828        0.1768911         61.4303        0.2814891        93.10688
4.846                  0.1721943         108.791        0.1756333        58.25393        0.1757273        59.97635        0.2791696        92.65689
4.847                  0.1726924        110.1077        0.1739917        56.78563        0.1744745        58.50987        0.2767538        92.17907
4.848                   0.173482        111.4053        0.1722669        55.31406        0.1731311        57.03165        0.2742281        91.67387
4.849                  0.1745602        112.6747        0.1704594        53.83997        0.1716956        55.54246        0.2715797        91.14184
4.85                   0.1759223        113.9076          0.16857         52.3641        0.1701668        54.04314        0.2687961        90.58374
4.851                   0.177561        115.0959        0.1665992        50.88723        0.1685439        52.53456        0.2658658        90.00051
4.852                  0.1794677        116.2328         0.164548        49.41014        0.1668259         51.0176        0.2627777        89.39322
4.853                  0.1816318        117.3119        0.1624175        47.93368        0.1650126        49.49322        0.2595213        88.76315
4.854                  0.1840413        118.3279        0.1602088        46.45871        0.1631036        47.96239        0.2560871         88.1117
4.855                   0.186683        119.2765        0.1579233        44.98615        0.1610989        46.42614        0.2524663        87.44047
4.856                  0.1895427        120.1542        0.1555624        43.51695        0.1589989        44.88555        0.2486509        86.75123
4.857                  0.1926055        120.9588        0.1531276        42.05213        0.1568039        43.34174        0.2446337         86.0459
4.858                  0.1958557        121.6884        0.1506207        40.59275        0.1545148         41.7959        0.2404084        85.32664
4.859                  0.1992777        122.3424        0.1480435        39.13993        0.1521325        40.24927        0.2359697         84.5958
4.86                   0.2028553        122.9206         0.145398         37.6949        0.1496583        38.70318        0.2313131        83.85598
4.861                  0.2065725        123.4236        0.1426863        36.25892        0.1470937        37.15904        0.2264349        83.10998
4.862                  0.2104136        123.8524        0.1399107        34.83337        0.1444403         35.6183        0.2213326        82.36101
4.863                  0.2143627        124.2085        0.1370735        33.41975        0.1417001         34.0826        0.2160044        81.61254
4.864                  0.2184046        124.4937        0.1341772        32.01965        0.1388753         32.5536        0.2104498        80.86851
4.865                  0.2225243        124.7102        0.1312245        30.63479        0.1359684        31.03314         0.204669        80.13331
4.866                  0.2267074        124.8604        0.1282182        29.26705         0.132982         29.5232        0.1986634        79.41198
4.867                  0.2309398        124.9466        0.1251611        27.91847        0.1299191        28.02591        0.1924354        78.71019
4.868                  0.2352081        124.9716        0.1220564        26.59128        0.1267827         26.5436        0.1859886        78.03453
4.869                  0.2394992        124.9379        0.1189072        25.28795        0.1235763         25.0788        0.1793279        77.39268
4.87                   0.2438009        124.8483        0.1157169        24.01115        0.1203035        23.63432        0.1724593        76.79362
4.871                  0.2481012        124.7053        0.1124892        22.76386        0.1169682        22.21323        0.1653903        76.24802
4.872                  0.2523887        124.5118        0.1092275        21.54937        0.1135744        20.81892        0.1581301        75.76864
4.873                  0.2566529        124.2703         0.105936        20.37134        0.1101265        19.45521        0.1506897        75.37102
4.874                  0.2608832        123.9833        0.1026185        19.23386        0.1066292        18.12634        0.1430824        75.07414
4.875                  0.2650701        123.6534       0.09927946        18.14147        0.1030875        16.83706         0.135324         74.9016
4.876                  0.2692044        123.2828       0.09592338         17.0993       0.09950636        15.59276        0.1274338        74.88298
4.877                  0.2732774         122.874       0.09255502        16.11312        0.0958915        14.39953        0.1194356        75.05602
4.878                  0.2772807        122.4291        0.0891795        15.18941       0.09224872        13.26433        0.1113585        75.46929
4.879                  0.2812067        121.9504       0.08580221        14.33556       0.08858433        12.19512          0.10324        76.18619
4.88                   0.2850483        121.4398       0.08242897        13.55993       0.08490501        11.20107       0.09512831        77.29043
4.881                  0.2887986        120.8994       0.07906603        12.87203         0.081218        10.29276       0.08708746         78.8935
4.882                  0.2924511         120.331       0.07572017        12.28272       0.07753109         9.48248        0.0792045         81.1444
4.883                  0.2960002        119.7364       0.07239875        11.80441        0.0738528        8.784572       0.07160032        84.24068
4.884                  0.2994403        119.1173       0.06910988        11.45128       0.07019249        8.215806       0.06444547        88.43636
4.885                  0.3027662        118.4755       0.06586254        11.23951       0.06656051        7.795866       0.05798064        94.03277
4.886                  0.3059736        117.8124       0.06266668        11.18761       0.06296847        7.547907       0.05253627          101.32
4.887                   0.309058        117.1297       0.05953352        11.31656        0.0594295        7.499173       0.04853035          110.42
4.888                  0.3120158        116.4286       0.05647567        11.65009       0.05595863        7.681673       0.04640471        121.0316
4.889                  0.3148434        115.7106       0.05350746        12.21468       0.05257323        8.132834        0.0464761        132.2761
4.89                   0.3175379        114.9771       0.05064523        13.03947       0.04929356        8.895999       0.04878052        142.9663
4.891                  0.3200965        114.2292       0.04790755        14.15566       0.04614338        10.02051       0.05306074        152.1823
4.892                   0.322517        113.4682       0.04531556        15.59545       0.04315074        11.56095       0.05890907        159.5785
4.893                  0.3247975        112.6952       0.04289306        17.38994       0.04034852        13.57476       0.06592121        165.2531
4.894                  0.3269362        111.9113       0.04066651        19.56594         0.037775        16.11736        0.0737698        169.4898