! TOUCHSTONE file generated by CST MICROWAVE STUDIO
! Date and time: Mon Dec  2 04:52:23 2024
! Project name: test_tuning.cst
! Parameters = {airCoaxOuterDiameter=3; chamferAngle=45; chamferWidth=24; connectorLength=10; drillingHoleDiameter=4.1; feedLength=60; flareDiameter=130; flareLength=70; gratingDistance=0; gratingGap=1.90274; outletLength=60; polarizerLength=134; probe1Diameter=1.3; probe1Distance=14; probe1Length=12; probe2Diameter=1.3; probe2Distance=0; probe2Length=12; probeLength=12; smaInnerDiameter=1.3; smaOuterDiameter=4.1; transitionCoefficient=1.33; waveguideFeedLength=30; waveguideSide=50; waveguideThickness=3; wireCount=25; wireDiameter=1.17699}
! Header version: 2024
! Port assignment regex: !\s*Touchstone port\s*([0-9]+)\s*=\s*(CST MWS port|CST DES external port|CST DES block port)\s*(.+)\s* \(\"(.*)\"\)(\s*mode\s*([0-9]+))?.*
! Touchstone port assignment:
! Touchstone port 1 = CST MWS port 1 ("Input1")
! Touchstone port 2 = CST MWS port 2 ("Input2")
# GHz S MA R 50
4.6                      0.24362       -171.5471        0.6009322        68.36903        0.6009331          68.369        0.2436194        -171.547
4.6014                 0.2469481       -171.9047        0.6038851        67.36415        0.6038861        67.36411        0.2469476       -171.9046
4.6028                 0.2506759       -172.2151         0.606452         66.3623        0.6064528        66.36224        0.2506754        -172.215
4.6042                 0.2548255       -172.4987        0.6086737        65.36735        0.6086746        65.36728        0.2548251       -172.4986
4.6056                 0.2594045       -172.7749        0.6105964        64.38213        0.6105972        64.38208        0.2594041       -172.7748
4.607                  0.2644064       -173.0611        0.6122684        63.40859        0.6122691        63.40853        0.2644061        -173.061
4.6084                 0.2698119       -173.3725        0.6137389        62.44769        0.6137396        62.44762        0.2698116       -173.3724
4.6098                 0.2755903       -173.7213         0.615056        61.49947        0.6150566        61.49938        0.2755901       -173.7212
4.6112                 0.2817026       -174.1169         0.616265        60.56314        0.6162655        60.56306        0.2817023       -174.1168
4.6126                 0.2881028       -174.5655        0.6174064        59.63722        0.6174069        59.63712        0.2881026       -174.5654
4.614                  0.2947413       -175.0705        0.6185151        58.71953        0.6185155        58.71942        0.2947411       -175.0704
4.6154                 0.3015667       -175.6329        0.6196194        57.80743        0.6196196        57.80734        0.3015666       -175.6327
4.6168                 0.3085281       -176.2515        0.6207395        56.89795        0.6207397        56.89787         0.308528       -176.2514
4.6182                 0.3155768       -176.9235        0.6218882        55.98793        0.6218883        55.98783        0.3155768       -176.9234
4.6196                 0.3226678       -177.6449        0.6230699        55.07413        0.6230699        55.07405        0.3226678       -177.6448
4.621                   0.329761       -178.4107        0.6242816        54.15349        0.6242815        54.15341         0.329761       -178.4106
4.6224                 0.3368215       -179.2155        0.6255132        53.22313         0.625513        53.22305        0.3368217       -179.2154
4.6238                  0.343821        179.9464        0.6267481        52.28054         0.626748        52.28047        0.3438212        179.9465
4.6252                 0.3507368        179.0805         0.627965        51.32366        0.6279648        51.32359        0.3507371        179.0806
4.6266                 0.3575528        178.1922        0.6291381        50.35093        0.6291379        50.35087        0.3575531        178.1923
4.628                  0.3642582        177.2864        0.6302392        49.36133         0.630239        49.36126        0.3642586        177.2865
4.6294                 0.3708479        176.3673        0.6312386        48.35438        0.6312384        48.35431        0.3708483        176.3674
4.6308                 0.3773212        175.4388        0.6321064        47.33015         0.632106         47.3301        0.3773218        175.4388
4.6322                 0.3836815        174.5037        0.6328134        46.28926         0.632813        46.28921        0.3836821        174.5038
4.6336                 0.3899349        173.5646        0.6333331        45.23274        0.6333328        45.23268        0.3899356        173.5647
4.635                  0.3960897         172.623        0.6336416        44.16203        0.6336411        44.16198        0.3960904        172.6231
4.6364                 0.4021554          171.68        0.6337187        43.07895        0.6337182         43.0789        0.4021562          171.68
4.6378                 0.4081417        170.7358        0.6335486        41.98554        0.6335481        41.98548        0.4081426        170.7359
4.6392                 0.4140577        169.7905        0.6331203        40.88401        0.6331197        40.88397        0.4140586        169.7906
4.6406                  0.419911        168.8435        0.6324275        39.77671        0.6324269        39.77667         0.419912        168.8436
4.642                  0.4257075        167.8939        0.6314687        38.66598         0.631468        38.66595        0.4257086        167.8939
4.6434                 0.4314502        166.9405        0.6302471        37.55413        0.6302463        37.55411        0.4314513        166.9405
4.6448                 0.4371393        165.9821        0.6287702        36.44334        0.6287694        36.44332        0.4371405        165.9821
4.6462                 0.4427721        165.0174        0.6270496        35.33561        0.6270487         35.3356        0.4427733        165.0174
4.6476                 0.4483424        164.0451        0.6250999        34.23274        0.6250991        34.23273        0.4483437        164.0451
4.649                  0.4538413        163.0643        0.6229386        33.13622        0.6229376        33.13622        0.4538426        163.0643
4.6504                  0.459257         162.074        0.6205847        32.04727        0.6205837        32.04728        0.4592582         162.074
4.6518                 0.4645753        161.0736        0.6180589        30.96678        0.6180579         30.9668        0.4645766        161.0736
4.6532                 0.4697804         160.063        0.6153819        29.89531        0.6153811        29.89534        0.4697816         160.063
4.6546                 0.4748549        159.0422        0.6125742        28.83312        0.6125734        28.83316        0.4748562        159.0421
4.656                  0.4797811        158.0116        0.6096555        27.78013        0.6096547        27.78018        0.4797824        158.0115
4.6574                  0.484541         156.972        0.6066433        26.73599        0.6066425        26.73606        0.4845423        156.9719
4.6588                 0.4891173        155.9244        0.6035536        25.70012        0.6035529         25.7002        0.4891185        155.9243
4.6602                 0.4934941        154.8703        0.6003995        24.67174        0.6003989        24.67183        0.4934952        154.8702
4.6616                  0.497657        153.8112        0.5971915         23.6499        0.5971911        23.64999        0.4976582        153.8111
4.663                  0.5015943         152.749        0.5939372        22.63358        0.5939369        22.63368        0.5015954        152.7489
4.6644                 0.5052964        151.6855        0.5906411        21.62173        0.5906409        21.62184        0.5052976        151.6854
4.6658                 0.5087573        150.6227         0.587305        20.61331         0.587305        20.61342        0.5087586        150.6227
4.6672                 0.5119739        149.5629        0.5839282        19.60737        0.5839283        19.60748        0.5119751        149.5628
4.6686                 0.5149463        148.5078        0.5805077        18.60311         0.580508        18.60321        0.5149474        148.5077
4.67                   0.5176777        147.4594        0.5770389        17.59986        0.5770393        17.59996        0.5176789        147.4593
4.6714                 0.5201749        146.4196         0.573516        16.59719        0.5735164        16.59729        0.5201759        146.4194
4.6728                 0.5224468        145.3897        0.5699321         15.5949        0.5699327          15.595         0.522448        145.3896
4.6742                 0.5245055        144.3713        0.5662807        14.59303        0.5662814        14.59312        0.5245066        144.3712
4.6756                 0.5263648        143.3653        0.5625555        13.59186        0.5625563        13.59194        0.5263658        143.3651
4.677                  0.5280397        142.3724        0.5587514        12.59191        0.5587521        12.59198        0.5280407        142.3723
4.6784                  0.529547        141.3932        0.5548642        11.59392         0.554865        11.59397         0.529548        141.3931
4.6798                 0.5309034        140.4277        0.5508923         10.5988        0.5508931        10.59885        0.5309042        140.4276
4.6812                 0.5321251        139.4757        0.5468358         9.60763        0.5468366        9.607663        0.5321259        139.4756
4.6826                 0.5332282        138.5367        0.5426974        8.621566        0.5426983        8.621587        0.5332289        138.5366
4.684                  0.5342268        137.6099        0.5384824         7.64182        0.5384832        7.641834        0.5342275        137.6098
4.6854                 0.5351334        136.6943        0.5341984        6.669596        0.5341992        6.669602         0.535134        136.6942
4.6868                 0.5359583        135.7886        0.5298556        5.706028        0.5298564        5.706025        0.5359587        135.7885
4.6882                 0.5367087        134.8916        0.5254664        4.752121        0.5254671        4.752112         0.536709        134.8914
4.6896                 0.5373893        134.0017         0.521045          3.8087        0.5210457        3.808688        0.5373894        134.0015
4.691                  0.5380016        133.1175        0.5166071        2.876358        0.5166077        2.876342        0.5380017        133.1173
4.6924                 0.5385445        132.2376        0.5121694        1.955408        0.5121699         1.95539        0.5385445        132.2374
4.6938                 0.5390138        131.3607        0.5077488        1.045851        0.5077493        1.045832        0.5390137        131.3606
4.6952                 0.5394029        130.4857        0.5033623       0.1473519        0.5033628       0.1473323        0.5394028        130.4856
4.6966                 0.5397033        129.6117        0.4990261      -0.7407731        0.4990265      -0.7407925        0.5397029        129.6116
4.698                  0.5399044        128.7381        0.4947548       -1.619551        0.4947553       -1.619569        0.5399041         128.738
4.6994                  0.539995        127.8645        0.4905614       -2.490334        0.4905618       -2.490351        0.5399946        127.8644
4.7008                 0.5399632        126.9907        0.4864564       -3.354766        0.4864568       -3.354783        0.5399628        126.9906
4.7022                 0.5397973        126.1172        0.4824474       -4.214736        0.4824478       -4.214753        0.5397968        126.1171
4.7036                 0.5394861        125.2442        0.4785394       -5.072316        0.4785398       -5.072344        0.5394857        125.2442
4.705                  0.5390202        124.3728        0.4747337       -5.929702        0.4747341       -5.929702        0.5390196        124.3727
4.7064                 0.5383916        123.5038        0.4710288       -6.789059        0.4710292       -6.789086         0.538391        123.5038
4.7078                 0.5375948        122.6386        0.4674199       -7.652611        0.4674203       -7.652665        0.5375941        122.6386
4.7092                 0.5366267        121.7784        0.4638995       -8.522409           0.4639       -8.522438        0.5366261        121.7784
4.7106                 0.5354876        120.9248        0.4604578       -9.400236        0.4604582        -9.40027        0.5354869        120.9248
4.712                    0.53418        120.0791        0.4570829        -10.2877        0.4570833       -10.28774        0.5341794        120.0791
4.7134                 0.5327099        119.2428        0.4537617       -11.18604        0.4537621       -11.18608        0.5327093        119.2428
4.7148                 0.5310858        118.4172        0.4504805       -12.09613        0.4504809       -12.09618        0.5310851        118.4172
4.7162                 0.5293184        117.6033        0.4472256       -13.01846         0.447226       -13.01852        0.5293178        117.6033
4.7176                 0.5274208        116.8021        0.4439841       -13.95316        0.4439844       -13.95323        0.5274202        116.8021
4.719                  0.5254069        116.0141        0.4407447       -14.89995        0.4407449       -14.90002        0.5254063        116.0141
4.7204                 0.5232915        115.2395        0.4374978       -15.85825         0.437498       -15.85832        0.5232909        115.2396
4.7218                 0.5210894        114.4783        0.4342368       -16.82718        0.4342369       -16.82726        0.5210888        114.4784
4.7232                 0.5188141          113.73        0.4309579       -17.80566         0.430958       -17.80574        0.5188136          113.73
4.7246                 0.5164778        112.9937        0.4276609        -18.7925        0.4276609       -18.79258        0.5164773        112.9938
4.726                    0.51409        112.2684        0.4243488       -19.78649        0.4243486       -19.78657        0.5140894        112.2684
4.7274                 0.5116567        111.5526        0.4210283       -20.78649         0.421028       -20.78658        0.5116562        111.5526
4.7288                 0.5091807        110.8448        0.4177092        -21.7916         0.417709       -21.79168        0.5091802        110.8449
4.7302                   0.50666        110.1433        0.4144047       -22.80121        0.4144044       -22.80128        0.5066595        110.1433
4.7316                 0.5040882        109.4465        0.4111299       -23.81515        0.4111295       -23.81521        0.5040878        109.4465
4.733                  0.5014547        108.7528        0.4079021       -24.83381        0.4079016       -24.83386        0.5014543        108.7529
4.7344                 0.4987441        108.0611        0.4047395       -25.85818        0.4047389       -25.85822        0.4987439        108.0612
4.7358                 0.4959376        107.3703        0.4016601       -26.88998        0.4016595       -26.89001        0.4959373        107.3704
4.7372                 0.4930126        106.6803        0.3986814       -27.93166        0.3986808       -27.93168        0.4930124        106.6804
4.7386                 0.4899444        105.9912        0.3958189       -28.98645        0.3958183       -28.98646        0.4899444        105.9914
4.74                    0.486707        105.3041        0.3930849       -30.05832        0.3930843       -30.05832        0.4867071        105.3043
4.7414                 0.4832743        104.6208         0.390488       -31.15194        0.3904874       -31.15192        0.4832744        104.6209
4.7428                 0.4796213        103.9439        0.3880321       -32.27257        0.3880315       -32.27255        0.4796216         103.944
4.7442                 0.4757259         103.277        0.3857154         -33.426        0.3857149       -33.42597        0.4757264        103.2771
4.7456                 0.4715703        102.6247        0.3835304       -34.61831        0.3835299       -34.61826        0.4715709        102.6249
4.747                  0.4671423        101.9925        0.3814632       -35.85574        0.3814628       -35.85568         0.467143        101.9927
4.7484                 0.4624369        101.3868        0.3794936       -37.14454        0.3794933       -37.14448        0.4624377        101.3869
4.7498                  0.457458        100.8147        0.3775954       -38.49077        0.3775952        -38.4907        0.4574589        100.8148
4.7512                 0.4522192        100.2842        0.3757367       -39.90004        0.3757365       -39.89997        0.4522203        100.2844
4.7526                 0.4467453        99.80391        0.3738807        -41.3775        0.3738805       -41.37744        0.4467465        99.80401
4.754                  0.4410729         99.3826        0.3719861       -42.92761        0.3719861       -42.92754        0.4410742        99.38275
4.7554                 0.4352514         99.0294        0.3700093       -44.55405        0.3700092       -44.55397        0.4352527        99.02953
4.7568                 0.4293427        98.75311        0.3679039       -46.25965        0.3679039       -46.25959        0.4293441        98.75324
4.7582                 0.4234215        98.56202        0.3656231       -48.04643        0.3656232       -48.04636         0.423423         98.5621
4.7596                 0.4175744        98.46332        0.3631207       -49.91544        0.3631208       -49.91537         0.417576        98.46337
4.761                  0.4118987        98.46262        0.3603516       -51.86694        0.3603517       -51.86688        0.4119002        98.46264
4.7624                 0.4065001        98.56338        0.3572737       -53.90036        0.3572738        -53.9003        0.4065016        98.56337
4.7638                 0.4014905        98.76626        0.3538481       -56.01436        0.3538483       -56.01431         0.401492        98.76625
4.7652                  0.396984        99.06863         0.350041       -58.20694        0.3500411       -58.20691        0.3969854        99.06862
4.7666                 0.3930932        99.46403        0.3458233       -60.47548        0.3458235       -60.47543        0.3930945        99.46397
4.768                  0.3899241         99.9419        0.3411721       -62.81683        0.3411722        -62.8168        0.3899254         99.9418
4.7694                 0.3875717        100.4876        0.3360703        -65.2274        0.3360705       -65.22736        0.3875728        100.4875
4.7708                 0.3861143        101.0827        0.3305077       -67.70324        0.3305079       -67.70322        0.3861153        101.0825
4.7722                 0.3856097        101.7055        0.3244807       -70.24011        0.3244808       -70.24008        0.3856106        101.7054
4.7736                 0.3860914        102.3325        0.3179921       -72.83349        0.3179923       -72.83345        0.3860922        102.3323
4.775                  0.3875665        102.9388        0.3110515       -75.47868        0.3110517       -75.47865        0.3875672        102.9387
4.7764                 0.3900151        103.5003        0.3036748       -78.17089         0.303675       -78.17086        0.3900155        103.5001
4.7778                 0.3933905        103.9942        0.2958838       -80.90519        0.2958839       -80.90517        0.3933909        103.9941
4.7792                 0.3976226        104.4007        0.2877057       -83.67657        0.2877059       -83.67655        0.3976229        104.4006
4.7806                 0.4026207        104.7035        0.2791732       -86.48002        0.2791733          -86.48        0.4026209        104.7034
4.782                  0.4082781        104.8901        0.2703232        -89.3105        0.2703233       -89.31047        0.4082781        104.8901
4.7834                 0.4144763        104.9525        0.2611967       -92.16291        0.2611969       -92.16288        0.4144762        104.9524
4.7848                 0.4210902        104.8862        0.2518383       -95.03225        0.2518384       -95.03222        0.4210901        104.8861
4.7862                 0.4279922        104.6905        0.2422951       -97.91351        0.2422953       -97.91348        0.4279921        104.6905
4.7876                 0.4350558         104.368        0.2326165       -100.8017        0.2326167       -100.8017        0.4350556         104.368
4.789                  0.4421591        103.9235        0.2228535       -103.6921        0.2228536       -103.6921        0.4421589        103.9235
4.7904                 0.4491873        103.3638        0.2130577       -106.5799        0.2130579       -106.5799         0.449187        103.3638
4.7918                 0.4560345        102.6973        0.2032813       -109.4606        0.2032814       -109.4605        0.4560342        102.6973
4.7932                 0.4626056        101.9333        0.1935759       -112.3299         0.193576       -112.3299        0.4626053        101.9333
4.7946                 0.4688168        101.0816        0.1839922       -115.1839        0.1839924       -115.1839        0.4688165        101.0816
4.796                  0.4745966        100.1526        0.1745794       -118.0192        0.1745796       -118.0192        0.4745963        100.1526
4.7974                 0.4798858        99.15636        0.1653846       -120.8332        0.1653847       -120.8332        0.4798856        99.15639
4.7988                  0.484638        98.10307         0.156452       -123.6237        0.1564521       -123.6237        0.4846379         98.1031
4.8002                 0.4888187        97.00247        0.1478228         -126.39        0.1478229         -126.39        0.4888186        97.00253
4.8016                 0.4924055        95.86396        0.1395344       -129.1325        0.1395345       -129.1326        0.4924054        95.86401
4.803                  0.4953874         94.6964        0.1316201       -131.8535        0.1316202       -131.8535        0.4953873        94.69643
4.8044                 0.4977636        93.50797        0.1241088       -134.5567        0.1241088       -134.5567        0.4977636          93.508
4.8058                 0.4995437        92.30635        0.1170244       -137.2485        0.1170244       -137.2485        0.4995436         92.3064
4.8072                 0.5007454        91.09843         0.110386       -139.9374        0.1103861       -139.9375        0.5007454        91.09848
4.8086                 0.5013949         89.8904        0.1042075       -142.6346        0.1042075       -142.6347         0.501395        89.89046
4.81                   0.5015243        88.68769       0.09849779       -145.3537       0.09849776       -145.3537        0.5015244        88.68776
4.8114                 0.5011713        87.49491       0.09326086       -148.1105       0.09326081       -148.1105        0.5011714        87.49498
4.8128                 0.5003776         86.3159       0.08849625       -150.9228       0.08849617       -150.9228        0.5003777        86.31597
4.8142                 0.4991873        85.15363       0.08419951       -153.8092       0.08419943       -153.8092        0.4991875         85.1537
4.8156                 0.4976462        84.01029        0.0803628       -156.7884        0.0803627       -156.7884        0.4976464        84.01034
4.817                  0.4957997        82.88723       0.07697558       -159.8777       0.07697546       -159.8777        0.4957999         82.8873
4.8184                 0.4936921        81.78508       0.07402527       -163.0916       0.07402514       -163.0916        0.4936923        81.78516
4.8198                 0.4913652        80.70374       0.07149795       -166.4405       0.07149783       -166.4404        0.4913655        80.70381
4.8212                 0.4888576         79.6424       0.06937886        -169.929       0.06937873       -169.9289        0.4888579        79.64248
4.8226                 0.4862034        78.59977       0.06765265       -173.5554       0.06765254       -173.5553        0.4862037        78.59986
4.824                  0.4834319        77.57402       0.06630368       -177.3109       0.06630355       -177.3108        0.4834322         77.5741
4.8254                 0.4805671        76.56297       0.06531577        178.8203       0.06531566        178.8204        0.4805674        76.56305
4.8268                 0.4776275         75.5642       0.06467222        174.8602       0.06467211        174.8603        0.4776279        75.56427
4.8282                 0.4746262        74.57516       0.06435546        170.8358       0.06435537         170.836        0.4746266        74.57522
4.8296                 0.4715709        73.59326       0.06434695        166.7776       0.06434688        166.7777        0.4715712        73.59334
4.831                  0.4684647        72.61607       0.06462702        162.7173       0.06462697        162.7174         0.468465        72.61612
4.8324                 0.4653063        71.64129       0.06517507        158.6865       0.06517502        158.6866        0.4653067        71.64134
4.8338                 0.4620913        70.66696        0.0659697        154.7147       0.06596967        154.7149        0.4620917          70.667
4.8352                 0.4588123         69.6914       0.06698924        150.8284       0.06698923        150.8285        0.4588126        69.69145
4.8366                 0.4554602        68.71338       0.06821221        147.0499       0.06821221          147.05        0.4554605        68.71344
4.838                  0.4520249        67.73206       0.06961789        143.3974       0.06961791        143.3975        0.4520252        67.73212
4.8394                 0.4484964        66.74701       0.07118689        139.8844       0.07118692        139.8846        0.4484966        66.74707
4.8408                 0.4448651        65.75815       0.07290162        136.5205       0.07290166        136.5207        0.4448653        65.75821
4.8422                 0.4411226        64.76583       0.07474673        133.3114       0.07474678        133.3115        0.4411228         64.7659
4.8436                 0.4372625        63.77068       0.07670935        130.2591       0.07670941        130.2592        0.4372626        63.77074
4.845                  0.4332802        62.77353       0.07877921        127.3632       0.07877929        127.3633        0.4332804         62.7736
4.8464                 0.4291738        61.77545       0.08094869        124.6203       0.08094877        124.6203        0.4291739        61.77553
4.8478                 0.4249436        60.77761       0.08321265        122.0251       0.08321272        122.0251        0.4249437        60.77769
4.8492                 0.4205924        59.78117       0.08556811        119.5704       0.08556818        119.5704        0.4205925        59.78125
4.8506                 0.4161251        58.78727       0.08801405        117.2476       0.08801411        117.2477        0.4161253        58.78737
4.852                  0.4115489        57.79695       0.09055083        115.0471       0.09055089        115.0471         0.411549        57.79705
4.8534                 0.4068722        56.81106       0.09317978         112.958       0.09317982         112.958        0.4068723        56.81117
4.8548                 0.4021044        55.83026       0.09590266        110.9692        0.0959027        110.9692        0.4021045        55.83038
4.8562                 0.3972558        54.85493       0.09872118        109.0692       0.09872121        109.0692         0.397256        54.85505
4.8576                 0.3923368        53.88517        0.1016366        107.2463        0.1016366        107.2464         0.392337        53.88529
4.859                  0.3873569         52.9208        0.1046491        105.4894        0.1046491        105.4894        0.3873572        52.92093
4.8604                 0.3823254        51.96136        0.1077577        103.7875        0.1077577        103.7875        0.3823258        51.96149
4.8618                 0.3772499        51.00611        0.1109602        102.1306        0.1109602        102.1306        0.3772503        51.00624
4.8632                 0.3721363         50.0541        0.1142526        100.5096        0.1142526        100.5097        0.3721367        50.05424
4.8646                 0.3669889        49.10417        0.1176294        98.91647        0.1176294        98.91649        0.3669894        49.10431
4.866                  0.3618098        48.15506        0.1210838        97.34418        0.1210838         97.3442        0.3618104        48.15518
4.8674                 0.3565991        47.20541        0.1246075          95.787        0.1246075        95.78703        0.3565997        47.20554
4.8688                  0.351355         46.2539        0.1281915        94.24038        0.1281914        94.24041        0.3513556        46.25403
4.8702                 0.3460736        45.29927        0.1318258        92.70084        0.1318258        92.70089        0.3460743        45.29938
4.8716                 0.3407497        44.34038        0.1355005        91.16596        0.1355005          91.166        0.3407504        44.34048