! TOUCHSTONE file generated by CST MICROWAVE STUDIO
! Date and time: Mon Dec  2 04:50:26 2024
! Project name: test_tuning.cst
! Parameters = {airCoaxOuterDiameter=3; chamferAngle=45; chamferWidth=24; connectorLength=10; drillingHoleDiameter=4.1; feedLength=60; flareDiameter=130; flareLength=70; gratingDistance=0; gratingGap=1.90274; outletLength=120; polarizerLength=134; probe1Diameter=1.3; probe1Distance=14; probe1Length=12; probe2Diameter=1.3; probe2Distance=0; probe2Length=12; probeLength=12; smaInnerDiameter=1.3; smaOuterDiameter=4.1; transitionCoefficient=1.33; waveguideFeedLength=30; waveguideSide=50; waveguideThickness=3; wireCount=25; wireDiameter=1.17699}
! Header version: 2024
! Port assignment regex: !\s*Touchstone port\s*([0-9]+)\s*=\s*(CST MWS port|CST DES external port|CST DES block port)\s*(.+)\s* \(\"(.*)\"\)(\s*mode\s*([0-9]+))?.*
! Touchstone port assignment:
! Touchstone port 1 = CST MWS port 1 ("Input1")
! Touchstone port 2 = CST MWS port 2 ("Input2")
# GHz S MA R 50
4.6                    0.2294368       -159.0372        0.6106644        66.27364        0.6106652        66.27363        0.2294376       -159.0373
4.6014                 0.2376899       -159.5671        0.6101413        65.38243        0.6101419        65.38241        0.2376907       -159.5673
4.6028                 0.2462247       -160.1748         0.609517        64.51272        0.6095174        64.51268        0.2462255        -160.175
4.6042                 0.2549322        -160.852         0.608855        63.65734        0.6088553         63.6573         0.254933       -160.8522
4.6056                 0.2637428       -161.5792        0.6081537        62.80799        0.6081537        62.80797        0.2637434       -161.5795
4.607                  0.2726506       -162.3344          0.60735        61.95898          0.60735        61.95896        0.2726511       -162.3347
4.6084                 0.2817173       -163.1017        0.6063456        61.11013        0.6063457        61.11012        0.2817177       -163.1019
4.6098                 0.2910534       -163.8781        0.6050453        60.26828        0.6050456        60.26829        0.2910537       -163.8783
4.6112                 0.3007806       -164.6757        0.6033997        59.44637           0.6034        59.44638         0.300781       -164.6759
4.6126                 0.3109884       -165.5194        0.6014367        58.66076        0.6014372        58.66076        0.3109888       -165.5195
4.614                  0.3216943       -166.4403        0.5992754        57.92711        0.5992759        57.92709        0.3216948       -166.4404
4.6154                 0.3328236       -167.4671        0.5971147        57.25587        0.5971152        57.25584        0.3328242       -167.4673
4.6168                 0.3442117       -168.6191           0.5952        56.64882        0.5952005        56.64875        0.3442123       -168.6193
4.6182                 0.3556299       -169.9006        0.5937756        56.09719        0.5937759        56.09711        0.3556305       -169.9008
4.6196                  0.366826       -171.3005        0.5930328        55.58252        0.5930328        55.58245        0.3668265       -171.3006
4.621                  0.3775691       -172.7947        0.5930709           55.08        0.5930707        55.07994        0.3775695       -172.7948
4.6224                 0.3876872       -174.3512        0.5938791        54.56334        0.5938788        54.56329        0.3876875       -174.3514
4.6238                  0.397091       -175.9361         0.595345        54.00988        0.5953447        54.00986        0.3970912       -175.9362
4.6252                 0.4057779       -177.5187        0.5972865        53.40458        0.5972861        53.40458         0.405778       -177.5188
4.6266                 0.4138185       -179.0761        0.5994961        52.74156         0.599496        52.74156        0.4138186       -179.0762
4.628                  0.4213287        179.4046        0.6017865        52.02337        0.6017865        52.02337        0.4213288        179.4045
4.6294                 0.4284349        177.9265        0.6040231        51.25826        0.6040233        51.25825        0.4284352        177.9264
4.6308                  0.435241        176.4846        0.6061395         50.4565        0.6061397        50.45648        0.4352414        176.4846
4.6322                 0.4418058        175.0701        0.6081307         49.6269        0.6081308        49.62686        0.4418063          175.07
4.6336                 0.4481361        173.6737        0.6100299        48.77437        0.6100299        48.77433        0.4481366        173.6736
4.635                  0.4541965        172.2899        0.6118778        47.89915        0.6118777         47.8991         0.454197        172.2898
4.6364                 0.4599322        170.9186        0.6136928         46.9976        0.6136924        46.99756        0.4599327        170.9185
4.6378                 0.4652966        169.5652        0.6154508        46.06448        0.6154503        46.06445        0.4652971        169.5651
4.6392                 0.4702762        168.2385        0.6170831        45.09559        0.6170826        45.09558        0.4702766        168.2384
4.6406                 0.4749041        166.9482        0.6184889        44.09014        0.6184885        44.09015        0.4749044        166.9482
4.642                  0.4792591        165.7015        0.6195602        43.05197        0.6195598        43.05199        0.4792594        165.7014
4.6434                  0.483451        164.5001        0.6202107         41.9894        0.6202104        41.98942        0.4834513           164.5
4.6448                  0.487594        163.3396         0.620399        40.91367         0.620399         40.9137        0.4875945        163.3395
4.6462                 0.4917788        162.2099        0.6201414        39.83656        0.6201416        39.83657        0.4917793        162.2098
4.6476                 0.4960489        161.0974        0.6195072        38.76772        0.6195074        38.76772        0.4960495        161.0974
4.649                  0.5003911        159.9886        0.6186011        37.71255        0.6186012        37.71254        0.5003918        159.9886
4.6504                 0.5047401        158.8732        0.6175352        36.67119        0.6175352        36.67118        0.5047408        158.8731
4.6518                 0.5089989        157.7464        0.6163995        35.63893        0.6163994        35.63891        0.5089995        157.7463
4.6532                 0.5130666        156.6099        0.6152394         34.6079        0.6152392        34.60788        0.5130671        156.6099
4.6546                 0.5168672        155.4707        0.6140452        33.56965        0.6140449        33.56965        0.5168675        155.4706
4.656                  0.5203696        154.3387        0.6127588        32.51787        0.6127585        32.51788          0.52037        154.3386
4.6574                 0.5235965        153.2236        0.6112935        31.45035        0.6112932        31.45037        0.5235967        153.2236
4.6588                 0.5266151        152.1322        0.6095614        30.36977        0.6095613        30.36979        0.5266153        152.1322
4.6602                 0.5295178        151.0661        0.6075014        29.28305        0.6075014        29.28307        0.5295181        151.0661
4.6616                 0.5323946        150.0213        0.6050978        28.19951         0.605098        28.19953         0.532395        150.0212
4.663                  0.5353061        148.9893        0.6023872        27.12838        0.6023876        27.12838        0.5353067        148.9893
4.6644                 0.5382657        147.9597        0.5994496        26.07625          0.59945        26.07624        0.5382663        147.9597
4.6658                 0.5412352        146.9229         0.596387        25.04539        0.5963872        25.04537        0.5412357        146.9229
4.6672                 0.5441362        145.8727        0.5932962        24.03312        0.5932962        24.03309        0.5441367        145.8727
4.6686                 0.5468716        144.8084        0.5902435        23.03269        0.5902433        23.03266        0.5468719        144.8083
4.67                   0.5493535        143.7341        0.5872476        22.03529        0.5872474        22.03526        0.5493539        143.7341
4.6714                 0.5515271        142.6581        0.5842774        21.03266        0.5842771        21.03264        0.5515275        142.6581
4.6728                 0.5533857        141.5901        0.5812625        20.01956        0.5812622        20.01956        0.5533859        141.5901
4.6742                 0.5549709        140.5386        0.5781165         18.9953        0.5781163        18.99531        0.5549711        140.5386
4.6756                 0.5563602        139.5083        0.5747636        17.96397        0.5747635        17.96399        0.5563605        139.5083
4.677                  0.5576446        138.4992        0.5711618        16.93331        0.5711618        16.93333        0.5576449        138.4992
4.6784                 0.5589016        137.5065        0.5673161        15.91253        0.5673162        15.91254        0.5589019        137.5065
4.6798                 0.5601728         136.522        0.5632785        14.90977        0.5632786        14.90977        0.5601732         136.522
4.6812                 0.5614531        135.5366         0.559134        13.92977         0.559134        13.92976        0.5614537        135.5366
4.6826                 0.5626919         134.543        0.5549777        12.97254        0.5549778        12.97252        0.5626924         134.543
4.684                  0.5638084        133.5376        0.5508897        12.03337        0.5508896        12.03334        0.5638089        133.5376
4.6854                 0.5647157        132.5217        0.5469127        11.10413        0.5469124        11.10411        0.5647162        132.5217
4.6868                 0.5653453        131.5009        0.5430424        10.17572         0.543042        10.17571        0.5653458        131.5009
4.6882                 0.5656672        130.4836        0.5392307         9.24066        0.5392304        9.240666        0.5656676        130.4836
4.6896                 0.5656978        129.4784        0.5354019          8.2953        0.5354016         8.29532        0.5656981        129.4784
4.691                   0.565495        128.4919         0.531476        7.340882        0.5314757        7.340913        0.5654954        128.4919
4.6924                 0.5651418         127.527        0.5273934        6.383161        0.5273934        6.383195        0.5651422         127.527
4.6938                 0.5647225        126.5816        0.5231333         5.43076        0.5231334        5.430789         0.564723        126.5816
4.6952                 0.5642992        125.6498        0.5187204        4.492683        0.5187206        4.492701        0.5642997        125.6498
4.6966                 0.5638937        124.7234        0.5142188        3.575723         0.514219        3.575729        0.5638944        124.7234
4.698                  0.5634831        123.7942        0.5097146        2.682458        0.5097147        2.682452        0.5634838        123.7943
4.6994                 0.5630068        122.8568        0.5052921        1.810424        0.5052922         1.81041        0.5630075        122.8568
4.7008                 0.5623851        121.9096         0.501011       0.9527432         0.501011       0.9527291        0.5623857        121.9096
4.7022                 0.5615429        120.9555        0.4968904       0.1000565        0.4968902       0.1000493        0.5615434        120.9555
4.7036                 0.5604313        120.0011        0.4929048      -0.7568012        0.4929046      -0.7567961        0.5604319         120.001
4.705                  0.5590427        119.0545        0.4889934        -1.62417        0.4889933       -1.624151        0.5590432        119.0545
4.7064                 0.5574118        118.1235        0.4850793       -2.503766        0.4850792       -2.503739        0.5574122        118.1235
4.7078                 0.5556064        117.2128        0.4810925       -3.392279        0.4810926       -3.392224        0.5556068        117.2128
4.7092                 0.5537082         116.323        0.4769919        -4.28235        0.4769921       -4.282295        0.5537086        116.3231
4.7106                 0.5517894        115.4506        0.4727766       -5.164765        0.4727769        -5.16474        0.5517898        115.4506
4.712                  0.5498923        114.5884        0.4684878       -6.031298        0.4684881       -6.031286        0.5498929        114.5885
4.7134                 0.5480183        113.7285        0.4641963       -6.877046        0.4641966       -6.877049        0.5480189        113.7285
4.7148                 0.5461279        112.8638        0.4599837       -7.702083        0.4599839       -7.702097        0.5461284        112.8638
4.7162                 0.5441534        111.9904        0.4559187       -8.511586        0.4559189       -8.511608        0.5441539        111.9904
4.7176                 0.5420194        111.1088        0.4520387       -9.314495        0.4520387       -9.314514        0.5420197        111.1088
4.719                  0.5396644        110.2234        0.4483396       -10.12103        0.4483396       -10.12105        0.5396647        110.2234
4.7204                 0.5370595        109.3417        0.4447785       -10.93985        0.4447784       -10.93985        0.5370598        109.3417
4.7218                  0.534216        108.4715        0.4412871       -11.77562        0.4412871       -11.77561        0.5342161        108.4716
4.7232                 0.5311822        107.6194        0.4377927       -12.62785        0.4377928       -12.62783        0.5311823        107.6194
4.7246                 0.5280294        106.7881        0.4342399       -13.49116          0.43424       -13.49114        0.5280295        106.7881
4.726                  0.5248312        105.9763        0.4306065       -14.35707        0.4306067       -14.35706        0.5248313        105.9763
4.7274                 0.5216421        105.1788        0.4269103       -15.21661        0.4269107       -15.21662        0.5216423        105.1788
4.7288                 0.5184819        104.3878        0.4232041       -16.06311        0.4232044       -16.06313        0.5184824        104.3878
4.7302                 0.5153308        103.5955        0.4195599       -16.89438        0.4195602       -16.89441        0.5153311        103.5956
4.7316                 0.5121346        102.7964         0.416049       -17.71362        0.4160491       -17.71367        0.5121349        102.7965
4.733                  0.5088213        101.9887        0.4127209       -18.52878         0.412721       -18.52883        0.5088217        101.9887
4.7344                 0.5053221        101.1748        0.4095903        -19.3505        0.4095902       -19.35054        0.5053224        101.1748
4.7358                 0.5015908        100.3611        0.4066327       -20.18924        0.4066326       -20.18927        0.5015911        100.3612
4.7372                 0.4976166        99.55582        0.4037928       -21.05251        0.4037926       -21.05253        0.4976168        99.55584
4.7386                 0.4934263        98.76664        0.4010009       -21.94298        0.4010008       -21.94299        0.4934265        98.76669
4.74                   0.4890762         97.9989        0.3981936       -22.85801        0.3981935       -22.85802        0.4890764        97.99895
4.7414                 0.4846345        97.25381        0.3953317       -23.79082        0.3953318       -23.79082        0.4846348        97.25386
4.7428                 0.4801611        96.52829        0.3924114       -24.73277        0.3924116       -24.73278        0.4801614        96.52835
4.7442                 0.4756892        95.81592        0.3894649       -25.67625         0.389465       -25.67627        0.4756897        95.81598
4.7456                 0.4712153        95.10893        0.3865502       -26.61729        0.3865503       -26.61733        0.4712157        95.10896
4.747                  0.4666993        94.40064        0.3837344       -27.55715        0.3837344        -27.5572        0.4666998        94.40069
4.7484                  0.462076        93.68774        0.3810738       -28.50244        0.3810737       -28.50249        0.4620765        93.68777
4.7498                 0.4572735        92.97137        0.3785976       -29.46371        0.3785973       -29.46376        0.4572739        92.97142
4.7512                 0.4522323        92.25723        0.3762992       -30.45291        0.3762989       -30.45295        0.4522327        92.25726
4.7526                 0.4469227        91.55427        0.3741384       -31.48042         0.374138       -31.48045         0.446923        91.55435
4.754                  0.4413504        90.87257        0.3720524        -32.5527         0.372052        -32.5527        0.4413507        90.87265
4.7554                 0.4355548        90.22086        0.3699738       -33.67104        0.3699735       -33.67103        0.4355551        90.22089
4.7568                 0.4295954        89.60454        0.3678487       -34.83193        0.3678484       -34.83191        0.4295957         89.6046
4.7582                 0.4235332        89.02474        0.3656502       -36.02886          0.36565       -36.02884        0.4235336        89.02482
4.7596                 0.4174123        88.47864        0.3633846       -37.25487        0.3633845       -37.25486        0.4174127        88.47869
4.761                  0.4112457        87.96109        0.3610871        -38.5054         0.361087        -38.5054        0.4112461        87.96114
4.7624                 0.4050117        87.46729        0.3588094       -39.78037        0.3588093       -39.78038        0.4050121        87.46731
4.7638                 0.3986603         86.9954        0.3566024       -41.08515        0.3566022       -41.08516        0.3986608        86.99546
4.7652                 0.3921291        86.54882        0.3544993       -42.42996        0.3544991       -42.42996        0.3921295        86.54885
4.7666                 0.3853633        86.13681        0.3525035       -43.82795        0.3525032       -43.82795        0.3853636        86.13684
4.768                  0.3783344        85.77408        0.3505841        -45.2926        0.3505837       -45.29259        0.3783346         85.7741
4.7694                 0.3710529        85.47882        0.3486813       -46.83495         0.348681       -46.83491        0.3710532        85.47888
4.7708                 0.3635708        85.27009        0.3467189        -48.4618        0.3467186       -48.46175        0.3635711        85.27015
4.7722                 0.3559744        85.16492        0.3446198        -50.1751        0.3446195       -50.17504        0.3559746          85.165
4.7736                 0.3483688         85.1765         0.342321       -51.97272        0.3423209       -51.97267        0.3483691        85.17655
4.775                  0.3408608        85.31332        0.3397831       -53.85042        0.3397831       -53.85036        0.3408612         85.3134
4.7764                 0.3335441        85.58025         0.336992       -55.80414         0.336992        -55.8041        0.3335445         85.5803
4.7778                 0.3264926        85.98065        0.3339526       -57.83242        0.3339527        -57.8324         0.326493         85.9807
4.7792                 0.3197653        86.51906        0.3306774       -59.93781        0.3306775        -59.9378        0.3197657        86.51911
4.7806                 0.3134218        87.20341        0.3271713       -62.12718        0.3271713       -62.12718        0.3134222        87.20346
4.782                  0.3075426        88.04487        0.3234192       -64.41077        0.3234192       -64.41076         0.307543        88.04495
4.7834                 0.3022495         89.0556        0.3193779       -66.80013        0.3193777       -66.80013        0.3022499        89.05565
4.7848                 0.2977163        90.24318        0.3149759       -69.30557        0.3149758       -69.30556        0.2977167        90.24326
4.7862                 0.2941649        91.60388        0.3101211       -71.93363        0.3101209        -71.9336        0.2941652        91.60393
4.7876                 0.2918428        93.11545        0.3047136       -74.68528        0.3047134       -74.68522        0.2918431         93.1155
4.789                  0.2909868        94.73339        0.2986611        -77.5551         0.298661       -77.55504        0.2909872        94.73343
4.7904                 0.2917789        96.39181        0.2918943       -80.53171        0.2918942       -80.53165        0.2917793        96.39189
4.7918                 0.2943079        98.01104        0.2843769       -83.59895         0.284377       -83.59893        0.2943083        98.01109
4.7932                 0.2985481        99.50905        0.2761113       -86.73786        0.2761114       -86.73783        0.2985486         99.5091
4.7946                  0.304362        100.8139        0.2671365       -89.92858        0.2671366       -89.92855        0.3043625        100.8139
4.796                  0.3115228        101.8729        0.2575225        -93.1523        0.2575225       -93.15229        0.3115233        101.8729
4.7974                 0.3197507        102.6561        0.2473598       -96.39272        0.2473599       -96.39272        0.3197512        102.6562
4.7988                 0.3287492         103.155         0.236749       -99.63657         0.236749       -99.63657        0.3287496         103.155
4.8002                 0.3382339        103.3769        0.2257908       -102.8735        0.2257907       -102.8735        0.3382342        103.3769
4.8016                 0.3479494        103.3397        0.2145797       -106.0952        0.2145795       -106.0952        0.3479497        103.3398
4.803                  0.3576744        103.0664        0.2032012        -109.294         0.203201        -109.294        0.3576748        103.0665
4.8044                 0.3672185        102.5815        0.1917335       -112.4611        0.1917333        -112.461        0.3672189        102.5816
4.8058                 0.3764155        101.9095        0.1802514       -115.5852        0.1802513       -115.5851        0.3764159        101.9095
4.8072                 0.3851172        101.0741        0.1688315       -118.6517        0.1688315       -118.6516        0.3851177        101.0742
4.8086                 0.3931914         100.099        0.1575563       -121.6432        0.1575564        -121.643        0.3931919        100.0991
4.81                   0.4005237        99.00811        0.1465156       -124.5407        0.1465157       -124.5406        0.4005242        99.00816
4.8114                 0.4070239        97.82559        0.1358045       -127.3268        0.1358047       -127.3267        0.4070244        97.82558
4.8128                 0.4126339        96.57574        0.1255171       -129.9888        0.1255172       -129.9887        0.4126343        96.57577
4.8142                 0.4173335        95.28216        0.1157377       -132.5234        0.1157378       -132.5234        0.4173339        95.28217
4.8156                 0.4211435        93.96629        0.1065313       -134.9395        0.1065314       -134.9395        0.4211439         93.9663
4.817                  0.4241219         92.6461        0.0979353         -137.26       0.09793537         -137.26        0.4241222        92.64612
4.8184                  0.426355        91.33501       0.08995562       -139.5204       0.08995565       -139.5204        0.4263554        91.33504
4.8198                 0.4279434        90.04118       0.08256822       -141.7645       0.08256826       -141.7644        0.4279438         90.0412
4.8212                 0.4289862        88.76772       0.07572696       -144.0369         0.075727       -144.0368        0.4289866        88.76774
4.8226                 0.4295668        87.51372       0.06937522       -146.3762       0.06937532       -146.3761        0.4295672        87.51374
4.824                  0.4297434        86.27583       0.06345926       -148.8089       0.06345941       -148.8088        0.4297438        86.27585
4.8254                 0.4295467        85.05021       0.05793914       -151.3477       0.05793936       -151.3475        0.4295472        85.05024
4.8268                 0.4289848        83.83435       0.05279501       -153.9939       0.05279527       -153.9938        0.4289852        83.83435
4.8282                  0.428053        82.62804       0.04802769       -156.7451       0.04802797       -156.7451        0.4280534        82.62805
4.8296                  0.426748         81.4339       0.04365366       -159.6058       0.04365392       -159.6059        0.4267482        81.43391
4.831                  0.4250781         80.2566       0.03969661       -162.5991       0.03969683       -162.5993        0.4250784        80.25662
4.8324                 0.4230719        79.10164       0.03617773       -165.7762       0.03617789       -165.7765         0.423072        79.10165
4.8338                 0.4207778        77.97364       0.03310776       -169.2188       0.03310785       -169.2191        0.4207779        77.97366
4.8352                 0.4182587        76.87497       0.03048295       -173.0306       0.03048298        -173.031        0.4182589        76.87498
4.8366                 0.4155809        75.80474       0.02828606       -177.3163       0.02828605       -177.3166        0.4155811        75.80477
4.838                  0.4128012        74.75883       0.02649139        177.8482       0.02649137         177.848        0.4128014        74.75886
4.8394                 0.4099564        73.73076       0.02507116        172.4464       0.02507115        172.4463        0.4099566        73.73079
4.8408                 0.4070575        72.71315       0.02400041        166.5421       0.02400042        166.5421        0.4070577        72.71318
4.8422                 0.4040911         71.6996        0.0232586        160.2836       0.02325866        160.2836        0.4040913        71.69963
4.8436                 0.4010266        70.68623       0.02282869        153.8859        0.0228288        153.8859        0.4010267        70.68626
4.845                  0.3978288        69.67247       0.02269565        147.5943       0.02269579        147.5942        0.3978289        69.67247
4.8464                 0.3944702        68.66094       0.02284635         141.639        0.0228465        141.6388        0.3944702        68.66097
4.8478                 0.3909414         67.6565       0.02327081        136.1933       0.02327096         136.193        0.3909413        67.65653
4.8492                 0.3872554        66.66455       0.02396319        131.3479       0.02396332        131.3475        0.3872553        66.66458
4.8506                 0.3834456         65.6892        0.0249202        127.1064       0.02492028         127.106        0.3834455        65.68922
4.852                  0.3795571        64.73185       0.02613649        123.4021       0.02613652        123.4016        0.3795571        64.73189
4.8534                 0.3756354        63.79048       0.02759868        120.1281       0.02759866        120.1277        0.3756353        63.79051
4.8548                 0.3717134        62.85994       0.02928084        117.1724       0.02928078        117.1721        0.3717134        62.85998
4.8562                 0.3678034        61.93311       0.03114422        114.4456       0.03114414        114.4454        0.3678033        61.93316
4.8576                 0.3638937        61.00279       0.03314171        111.8949       0.03314165        111.8948        0.3638936        61.00285
4.859                  0.3599528        60.06356        0.0352261        109.5044       0.03522607        109.5044        0.3599527         60.0636
4.8604                  0.355939        59.11311       0.03735937        107.2853       0.03735939        107.2852        0.3559388        59.11315
4.8618                 0.3518119        58.15285       0.03952058        105.2607       0.03952064        105.2606        0.3518118        58.15288
4.8632                  0.347545        57.18727       0.04170993        103.4504       0.04171002        103.4504        0.3475448        57.18731
4.8646                  0.343132        56.22261       0.04394774        101.8584       0.04394784        101.8583        0.3431318        56.22267
4.866                  0.3385888        55.26492       0.04626802        100.4654        0.0462681        100.4652        0.3385885        55.26498
4.8674                 0.3339482        54.31815       0.04870808          99.229        0.0487081        99.22877         0.333948        54.31822
4.8688                 0.3292502        53.38288       0.05129678        98.09133       0.05129675         98.0911          0.32925        53.38296
4.8702                 0.3245298        52.45596       0.05404537        96.99116       0.05404528        96.99097        0.3245296        52.45603
4.8716                 0.3198063        51.53122       0.05694343        95.87744        0.0569433         95.8773        0.3198062        51.53129