! TOUCHSTONE file generated by CST MICROWAVE STUDIO
! Date and time: Mon Dec  2 04:50:25 2024
! Project name: test_tuning.cst
! Parameters = {airCoaxOuterDiameter=3; chamferAngle=45; chamferWidth=24; connectorLength=10; drillingHoleDiameter=4.1; feedLength=60; flareDiameter=130; flareLength=70; gratingDistance=0; gratingGap=1.90274; outletLength=100; polarizerLength=134; probe1Diameter=1.3; probe1Distance=14; probe1Length=12; probe2Diameter=1.3; probe2Distance=0; probe2Length=12; probeLength=12; smaInnerDiameter=1.3; smaOuterDiameter=4.1; transitionCoefficient=1.33; waveguideFeedLength=30; waveguideSide=50; waveguideThickness=3; wireCount=25; wireDiameter=1.17699}
! Header version: 2024
! Port assignment regex: !\s*Touchstone port\s*([0-9]+)\s*=\s*(CST MWS port|CST DES external port|CST DES block port)\s*(.+)\s* \(\"(.*)\"\)(\s*mode\s*([0-9]+))?.*
! Touchstone port assignment:
! Touchstone port 1 = CST MWS port 1 ("Input1")
! Touchstone port 2 = CST MWS port 2 ("Input2")
# GHz S MA R 50
4.6                    0.2008742       -166.5618        0.6141241        63.17075        0.6141245        63.17078        0.2008749       -166.5619
4.6014                 0.2063382       -166.9474        0.6155611        62.35574        0.6155616        62.35574         0.206339       -166.9475
4.6028                 0.2119629       -167.3287        0.6168839        61.53091        0.6168843        61.53092        0.2119636       -167.3289
4.6042                 0.2177712       -167.7166        0.6180968        60.69934        0.6180972        60.69934        0.2177717       -167.7168
4.6056                 0.2237725       -168.1219        0.6192154        59.86351        0.6192158         59.8635        0.2237729       -168.1222
4.607                  0.2299627        -168.555        0.6202637         59.0251        0.6202639        59.02508        0.2299629       -168.5552
4.6084                 0.2363243       -169.0236        0.6212704        58.18471        0.6212705         58.1847        0.2363244       -169.0239
4.6098                 0.2428293       -169.5332        0.6222649         57.3419        0.6222651         57.3419        0.2428292       -169.5335
4.6112                  0.249442        -170.086        0.6232739         56.4952         0.623274        56.49519        0.2494419       -170.0862
4.6126                 0.2561238       -170.6812        0.6243168        55.64217        0.6243169        55.64217        0.2561235       -170.6813
4.614                  0.2628365       -171.3155        0.6254037         54.7799        0.6254038         54.7799        0.2628363       -171.3156
4.6154                 0.2695467       -171.9836        0.6265336         53.9051        0.6265337         53.9051        0.2695464       -171.9836
4.6168                 0.2762282       -172.6789         0.627694        53.01461        0.6276942        53.01461        0.2762281       -172.6789
4.6182                 0.2828646       -173.3945        0.6288621        52.10567        0.6288623        52.10567        0.2828644       -173.3946
4.6196                 0.2894492       -174.1239        0.6300064        51.17618        0.6300067        51.17617        0.2894492       -174.1239
4.621                  0.2959855       -174.8613        0.6310896         50.2249        0.6310899        50.22489        0.2959857       -174.8613
4.6224                 0.3024854       -175.6024        0.6320724        49.25156        0.6320726        49.25155        0.3024857       -175.6024
4.6238                 0.3089665       -176.3448        0.6329164        48.25682        0.6329166        48.25679        0.3089669       -176.3448
4.6252                 0.3154495       -177.0878        0.6335873        47.24215        0.6335875        47.24213          0.31545       -177.0878
4.6266                 0.3219546       -177.8324        0.6340579        46.20968         0.634058        46.20967        0.3219551       -177.8324
4.628                  0.3284985       -178.5809        0.6343093        45.16194        0.6343094        45.16192         0.328499       -178.5809
4.6294                 0.3350917       -179.3366        0.6343319        44.10155        0.6343317        44.10153        0.3350922       -179.3367
4.6308                 0.3417368        179.8967        0.6341246        43.03102        0.6341245          43.031        0.3417372        179.8966
4.6322                 0.3484268        179.1154        0.6336947        41.95245        0.6336945        41.95244        0.3484271        179.1153
4.6336                 0.3551461        178.3165        0.6330545        40.86738        0.6330543        40.86737        0.3551465        178.3164
4.635                  0.3618715        177.4981        0.6322196        39.77667        0.6322194        39.77667        0.3618718         177.498
4.6364                 0.3685738        176.6596        0.6312057        38.68044        0.6312055        38.68044         0.368574        176.6596
4.6378                 0.3752209        175.8018        0.6300258        37.57813        0.6300257        37.57813        0.3752212        175.8018
4.6392                 0.3817811        174.9268        0.6286879         36.4686        0.6286878        36.46862        0.3817813        174.9268
4.6406                 0.3882252        174.0381        0.6271931        35.35037         0.627193        35.35039        0.3882255        174.0381
4.642                  0.3945306          173.14        0.6255344        34.22176        0.6255344        34.22176         0.394531          173.14
4.6434                 0.4006822        172.2373        0.6236964         33.0812        0.6236965        33.08122        0.4006827        172.2373
4.6448                 0.4066749        171.3351        0.6216566        31.92749        0.6216566         31.9275        0.4066755        171.3351
4.6462                 0.4125136        170.4382        0.6193857        30.75994        0.6193858        30.75995        0.4125143        170.4382
4.6476                 0.4182134        169.5508        0.6168511         29.5786        0.6168512        29.57861        0.4182142        169.5508
4.649                  0.4237981        168.6763        0.6140183        28.38436        0.6140183        28.38437        0.4237991        168.6762
4.6504                 0.4292991        167.8166        0.6108536        27.17897        0.6108537        27.17897        0.4293001        167.8166
4.6518                 0.4347523        166.9727        0.6073274        25.96504        0.6073275        25.96504        0.4347532        166.9726
4.6532                 0.4401958        166.1439         0.603416        24.74596        0.6034159        24.74595        0.4401967        166.1438
4.6546                 0.4456674        165.3285        0.5991027        23.52576        0.5991027        23.52576        0.4456681        165.3284
4.656                  0.4512013        164.5234        0.5943806        22.30901        0.5943805        22.30901        0.4512021        164.5233
4.6574                 0.4568269        163.7249        0.5892517        21.10057        0.5892516        21.10057        0.4568275        163.7248
4.6588                 0.4625659        162.9284        0.5837279        19.90549        0.5837277         19.9055        0.4625664        162.9283
4.6602                  0.468432        162.1291        0.5778302        18.72879          0.57783        18.72881        0.4684324         162.129
4.6616                 0.4744302        161.3222        0.5715876        17.57536        0.5715874        17.57537        0.4744305        161.3221
4.663                  0.4805567        160.5029        0.5650362        16.44978        0.5650361         16.4498         0.480557        160.5028
4.6644                 0.4868001        159.6671        0.5582181        15.35627         0.558218         15.3563        0.4868004         159.667
4.6658                 0.4931415        158.8111        0.5511792        14.29862        0.5511793        14.29865        0.4931419        158.8111
4.6672                 0.4995564        157.9319         0.543969         13.2801         0.543969        13.28013        0.4995568        157.9319
4.6686                 0.5060154        157.0272        0.5366384        12.30346        0.5366385        12.30349        0.5060159        157.0272
4.67                   0.5124855        156.0954        0.5292397        11.37089        0.5292399        11.37092        0.5124861        156.0954
4.6714                 0.5189313        155.1355        0.5218256          10.484        0.5218258        10.48402         0.518932        155.1355
4.6728                 0.5253152        154.1472        0.5144481        9.643753        0.5144483        9.643771        0.5253158        154.1471
4.6742                 0.5315984        153.1305        0.5071584        8.850446        0.5071586         8.85046        0.5315991        153.1304
4.6756                 0.5377415        152.0862        0.5000063        8.103611        0.5000066        8.103621        0.5377421        152.0862
4.677                  0.5437045        151.0155        0.4930392        7.401954        0.4930395         7.40196        0.5437053        151.0155
4.6784                 0.5494483          149.92        0.4863016        6.743271        0.4863018        6.743273        0.5494489        149.9199
4.6798                 0.5549341        148.8019        0.4798331         6.12439        0.4798333         6.12439        0.5549346        148.8018
4.6812                  0.560125        147.6636        0.4736681        5.541151        0.4736683         5.54115        0.5601256        147.6635
4.6826                 0.5649871        146.5082        0.4678339        4.988427         0.467834        4.988427        0.5649874        146.5081
4.684                  0.5694896        145.3391        0.4623491         4.46023        0.4623492        4.460231        0.5694899        145.3391
4.6854                 0.5736072        144.1601        0.4572225        3.949884        0.4572226        3.949887        0.5736074        144.1601
4.6868                 0.5773204        142.9754         0.452453        3.450277        0.4524531        3.450283        0.5773205        142.9753
4.6882                 0.5806171        141.7891        0.4480278        2.954185        0.4480279        2.954192        0.5806172         141.789
4.6896                 0.5834933        140.6056        0.4439241        2.454622        0.4439242         2.45463        0.5834933        140.6056
4.691                  0.5859534        139.4293        0.4401094        1.945212        0.4401096        1.945219        0.5859535        139.4293
4.6924                 0.5880107        138.2642        0.4365435        1.420524        0.4365438         1.42053        0.5880108        138.2642
4.6938                 0.5896866        137.1141        0.4331807       0.8763572        0.4331809       0.8763595        0.5896867        137.1141
4.6952                 0.5910102        135.9821        0.4299722        0.309921        0.4299724       0.3099181        0.5910105        135.9821
4.6966                 0.5920164        134.8707        0.4268696      -0.2800785        0.4268699      -0.2800874        0.5920167        134.8707
4.698                  0.5927443        133.7816        0.4238274      -0.8934748        0.4238277      -0.8934901        0.5927448        133.7816
4.6994                 0.5932354        132.7158        0.4208055       -1.528783        0.4208057       -1.528805        0.5932358        132.7158
4.7008                 0.5935304        131.6732        0.4177711       -2.183438        0.4177714       -2.183466        0.5935309        131.6732
4.7022                 0.5936679        130.6531        0.4147006       -2.854102        0.4147008       -2.854135        0.5936684        130.6531
4.7036                 0.5936818        129.6542        0.4115795       -3.537015        0.4115797       -3.537051        0.5936823        129.6542
4.705                     0.5936        128.6744        0.4084027       -4.228365        0.4084028       -4.228393        0.5936003        128.6744
4.7064                 0.5934431        127.7115        0.4051732       -4.924588        0.4051733       -4.924615        0.5934433        127.7114
4.7078                 0.5932241         126.763        0.4019009       -5.622765        0.4019009       -5.622793        0.5932244         126.763
4.7092                  0.592949        125.8267        0.3986002        -6.32074        0.3986001       -6.320768        0.5929492        125.8267
4.7106                 0.5926169        124.9004        0.3952875       -7.017267        0.3952875       -7.017294        0.5926171        124.9004
4.712                  0.5922227        123.9827        0.3919797       -7.712127        0.3919796        -7.71215        0.5922229        123.9826
4.7134                 0.5917577        123.0722        0.3886909       -8.405954        0.3886908       -8.405973        0.5917579        123.0722
4.7148                 0.5912123        122.1684        0.3854316       -9.100112        0.3854315       -9.100127        0.5912124        122.1684
4.7162                 0.5905775        121.2713        0.3822071       -9.796444        0.3822071       -9.796455        0.5905776        121.2713
4.7176                 0.5898471        120.3813        0.3790172       -10.49699        0.3790171         -10.497        0.5898473        120.3813
4.719                  0.5890185        119.4989        0.3758564       -11.20368        0.3758564       -11.20369        0.5890187        119.4989
4.7204                 0.5880935        118.6251         0.372715       -11.91806         0.372715       -11.91808        0.5880939        118.6251
4.7218                 0.5870785        117.7606        0.3695801        -12.6411        0.3695802       -12.64111        0.5870789        117.7606
4.7232                 0.5859839        116.9061        0.3664378         -13.373        0.3664378       -13.37302        0.5859844        116.9061
4.7246                 0.5848232        116.0619        0.3632747        -14.1132        0.3632747       -14.11322        0.5848238        116.0619
4.726                  0.5836117        115.2278        0.3600796       -14.86041        0.3600796       -14.86044        0.5836122        115.2278
4.7274                 0.5823646        114.4034        0.3568453       -15.61277        0.3568452        -15.6128        0.5823651        114.4034
4.7288                 0.5810956        113.5877         0.353569       -16.36804        0.3535689       -16.36806        0.5810962        113.5877
4.7302                 0.5798158        112.7793        0.3502529       -17.12385        0.3502528       -17.12387        0.5798163        112.7793
4.7316                 0.5785318        111.9766        0.3469043       -17.87803        0.3469042       -17.87805        0.5785323        111.9766
4.733                  0.5772458         111.178        0.3435341       -18.62879        0.3435339        -18.6288        0.5772462         111.178
4.7344                  0.575955        110.3817         0.340156         -19.375        0.3401558       -19.37501        0.5759553        110.3817
4.7358                 0.5746525        109.5864        0.3367849        -20.1163        0.3367848        -20.1163        0.5746528        109.5864
4.7372                 0.5733281        108.7907        0.3334355       -20.85312        0.3334353       -20.85312        0.5733283        108.7907
4.7386                 0.5719691         107.994        0.3301199       -21.58672        0.3301197       -21.58671        0.5719693         107.994
4.74                   0.5705626         107.196        0.3268471         -22.319         0.326847       -22.31899        0.5705628         107.196
4.7414                 0.5690965        106.3968        0.3236219       -23.05228        0.3236218       -23.05227        0.5690967        106.3968
4.7428                 0.5675609        105.5969        0.3204441       -23.78909         0.320444       -23.78908        0.5675612        105.5969
4.7442                 0.5659494        104.7971        0.3173093       -24.53183        0.3173093       -24.53182        0.5659496        104.7971
4.7456                 0.5642594        103.9983        0.3142092       -25.28255        0.3142092       -25.28254        0.5642597        103.9984
4.747                  0.5624926        103.2016        0.3111327       -26.04267        0.3111328       -26.04267        0.5624929        103.2016
4.7484                 0.5606543        102.4077         0.308068       -26.81292         0.308068       -26.81292        0.5606548        102.4077
4.7498                  0.558753         101.617        0.3050029       -27.59319        0.3050029        -27.5932        0.5587535        101.6171
4.7512                 0.5567988        100.8299        0.3019276       -28.38266        0.3019277       -28.38267        0.5567993        100.8299
4.7526                 0.5548025        100.0461        0.2988351       -29.17984        0.2988351       -29.17986        0.5548029        100.0461
4.754                  0.5527736        99.26501        0.2957222       -29.98287        0.2957222       -29.98289        0.5527741        99.26501
4.7554                 0.5507199        98.48561        0.2925899        -30.7897        0.2925899       -30.78972        0.5507203        98.48561
4.7568                 0.5486455        97.70669        0.2894434       -31.59842        0.2894434       -31.59843        0.5486459        97.70669
4.7582                 0.5465513        96.92691        0.2862912       -32.40747        0.2862912       -32.40748        0.5465517        96.92691
4.7596                 0.5444338        96.14488        0.2831443       -33.21594        0.2831443       -33.21595        0.5444341        96.14487
4.761                  0.5422859         95.3594        0.2800148       -34.02366        0.2800147       -34.02367        0.5422862         95.3594
4.7624                 0.5400978        94.56947        0.2769146       -34.83131        0.2769146       -34.83132         0.540098        94.56952
4.7638                 0.5378576        93.77452         0.273854       -35.64038         0.273854       -35.64038        0.5378578        93.77454
4.7652                 0.5355527        92.97429        0.2708406       -36.45303        0.2708406       -36.45302         0.535553        92.97431
4.7666                 0.5331717        92.16888        0.2678784       -37.27193        0.2678784       -37.27192        0.5331718         92.1689
4.768                  0.5307042        91.35886        0.2649677       -38.09996        0.2649677       -38.09995        0.5307044        91.35888
4.7694                 0.5281431        90.54495        0.2621049       -38.93996         0.262105       -38.93996        0.5281435        90.54501
4.7708                 0.5254847        89.72813        0.2592833       -39.79443        0.2592834       -39.79443        0.5254849        89.72815
4.7722                 0.5227282        88.90925         0.256494       -40.66532        0.2564941       -40.66533        0.5227285        88.90928
4.7736                 0.5198762        88.08918        0.2537269       -41.55387         0.253727       -41.55388        0.5198766        88.08921
4.775                  0.5169342        87.26848        0.2509722       -42.46052        0.2509723       -42.46054        0.5169347        87.26854
4.7764                 0.5139089        86.44753        0.2482218       -43.38499        0.2482219       -43.38502        0.5139094        86.44753
4.7778                 0.5108077        85.62613        0.2454697       -44.32639        0.2454698       -44.32642        0.5108082        85.62618
4.7792                 0.5076371        84.80398        0.2427134       -45.28339        0.2427134       -45.28343        0.5076375        84.80401
4.7806                 0.5044018        83.98032        0.2399538       -46.25456        0.2399539        -46.2546        0.5044023        83.98032
4.782                   0.501104        83.15402        0.2371955       -47.23856        0.2371954        -47.2386        0.5011044        83.15401
4.7834                 0.4977424        82.32402        0.2344456        -48.2345        0.2344456       -48.23454        0.4977427        82.32405
4.7848                 0.4943124        81.48917         0.231714       -49.24213        0.2317139       -49.24217        0.4943127        81.48917
4.7862                 0.4908062        80.64837        0.2290112       -50.26203        0.2290112       -50.26207        0.4908065        80.64839
4.7876                 0.4872134        79.80083         0.226348       -51.29571        0.2263479       -51.29574        0.4872137        79.80089
4.789                  0.4835217        78.94607        0.2237338       -52.34559        0.2237338       -52.34561        0.4835219         78.9461
4.7904                  0.479718        78.08393        0.2211762       -53.41487        0.2211761        -53.4149        0.4797182        78.08395
4.7918                 0.4757895        77.21472        0.2186797       -54.50744        0.2186797       -54.50746        0.4757897        77.21475
4.7932                 0.4717249        76.33903         0.216246       -55.62752         0.216246       -55.62755        0.4717252        76.33905
4.7946                 0.4675149        75.45785        0.2138734       -56.77944        0.2138734       -56.77947        0.4675151        75.45787
4.796                  0.4631526        74.57231        0.2115578       -57.96737        0.2115577        -57.9674        0.4631529        74.57235
4.7974                 0.4586344        73.68372        0.2092929        -59.1951        0.2092929       -59.19514        0.4586347        73.68375
4.7988                 0.4539589        72.79333        0.2070716       -60.46583        0.2070716       -60.46588        0.4539592        72.79335
4.8002                 0.4491271        71.90228        0.2048867       -61.78219        0.2048867       -61.78223        0.4491274         71.9023
4.8016                 0.4441416        71.01154        0.2027319       -63.14612        0.2027319       -63.14618        0.4441419        71.01157
4.803                  0.4390052        70.12192        0.2006028       -64.55916        0.2006028       -64.55922        0.4390055        70.12192
4.8044                 0.4337208        69.23383        0.1984975       -66.02252        0.1984974       -66.02257         0.433721        69.23384
4.8058                 0.4282896         68.3476        0.1964167       -67.53731        0.1964165       -67.53736        0.4282898        68.34761
4.8072                 0.4227112        67.46343        0.1943639       -69.10493        0.1943637       -69.10498        0.4227114        67.46343
4.8086                 0.4169826        66.58146        0.1923454       -70.72724        0.1923452       -70.72728        0.4169827        66.58147
4.81                   0.4110982        65.70199        0.1903689       -72.40682        0.1903688       -72.40686        0.4110982          65.702
4.8114                 0.4050502        64.82559        0.1884439       -74.14715        0.1884437       -74.14718        0.4050502        64.82559
4.8128                 0.3988291        63.95327        0.1865799       -75.95271        0.1865797       -75.95274         0.398829        63.95329
4.8142                 0.3924244        63.08667         0.184786       -77.82899        0.1847858       -77.82901        0.3924243        63.08669
4.8156                 0.3858255        62.22809        0.1830703        -79.7824        0.1830702       -79.78243        0.3858254        62.22812
4.817                  0.3790234        61.38067        0.1814391       -81.82013        0.1814389       -81.82016        0.3790233        61.38071
4.8184                 0.3720114         60.5484        0.1798965       -83.94989        0.1798964       -83.94989        0.3720113        60.54844
4.8198                 0.3647862        59.73617        0.1784447       -86.17964        0.1784446       -86.17965        0.3647862        59.73622
4.8212                 0.3573495        58.94977        0.1770838       -88.51734        0.1770837       -88.51734        0.3573495        58.94982
4.8226                 0.3497079        58.19583        0.1758123       -90.97062        0.1758122       -90.97062         0.349708        58.19588
4.824                  0.3418743        57.48178        0.1746279       -93.54658        0.1746278       -93.54659        0.3418743        57.48182
4.8254                 0.3338676        56.81575        0.1735278       -96.25157        0.1735277        -96.2516        0.3338677        56.81579
4.8268                 0.3257135         56.2065        0.1725095       -99.09105        0.1725094       -99.09108        0.3257136        56.20654
4.8282                 0.3174439        55.66329        0.1715715       -102.0694        0.1715715       -102.0695        0.3174439        55.66332
4.8296                 0.3090971        55.19575         0.170714       -105.1901        0.1707139       -105.1902        0.3090971        55.19578
4.831                  0.3007175        54.81372        0.1699387       -108.4554        0.1699386       -108.4555        0.3007174        54.81375
4.8324                 0.2923551        54.52703        0.1692498       -111.8664        0.1692497       -111.8665         0.292355        54.52706
4.8338                 0.2840654        54.34525        0.1686534       -115.4232        0.1686533       -115.4233        0.2840652        54.34529
4.8352                 0.2759084        54.27734        0.1681576       -119.1246        0.1681575       -119.1247        0.2759083        54.27738
4.8366                 0.2679487        54.33117        0.1677725       -122.9682        0.1677724       -122.9683        0.2679484        54.33122
4.838                  0.2602534          54.513        0.1675094       -126.9503        0.1675093       -126.9504        0.2602532        54.51306
4.8394                 0.2528921         54.8268        0.1673804       -131.0659        0.1673803       -131.0659        0.2528918        54.82686
4.8408                 0.2459339        55.27341        0.1673981       -135.3083        0.1673979       -135.3084        0.2459337         55.2735
4.8422                 0.2394461        55.84993        0.1675746       -139.6696        0.1675745       -139.6696        0.2394459        55.85003
4.8436                 0.2334907        56.54881        0.1679215       -144.1401        0.1679214       -144.1401        0.2334905        56.54891
4.845                  0.2281215         57.3574        0.1684485       -148.7087        0.1684484       -148.7087        0.2281214        57.35752
4.8464                 0.2233803        58.25785        0.1691637       -153.3627        0.1691636       -153.3627        0.2233802        58.25797
4.8478                 0.2192932        59.22728        0.1700725       -158.0883        0.1700725       -158.0883        0.2192932         59.2274
4.8492                 0.2158683         60.2388         0.171178       -162.8705         0.171178       -162.8705        0.2158682        60.23892
4.8506                 0.2130926        61.26285        0.1724798       -167.6934        0.1724798       -167.6934        0.2130926        61.26296
4.852                  0.2109322         62.2691        0.1739748       -172.5407        0.1739748       -172.5408        0.2109322        62.26921
4.8534                 0.2093325        63.22852         0.175657        -177.396         0.175657       -177.3961        0.2093325        63.22863
4.8548                  0.208221        64.11536        0.1775176        177.7569        0.1775176        177.7569         0.208221        64.11547
4.8562                 0.2075107        64.90879        0.1795455        172.9337        0.1795456        172.9336        0.2075107         64.9089
4.8576                  0.207105          65.594        0.1817279        168.1489         0.181728        168.1489        0.2071049         65.5941
4.859                  0.2069026        66.16275        0.1840505        163.4161        0.1840506        163.4161        0.2069025        66.16285
4.8604                 0.2068029        66.61326        0.1864986        158.7471        0.1864987        158.7471        0.2068028        66.61338
4.8618                 0.2067105        66.94985         0.189057        154.1522        0.1890571        154.1522        0.2067104        66.94997
4.8632                 0.2065393        67.18194        0.1917109        149.6398         0.191711        149.6397        0.2065392        67.18208
4.8646                 0.2062154         67.3233        0.1944461        145.2164        0.1944462        145.2163        0.2062153        67.32346
4.866                  0.2056798        67.39099        0.1972493        140.8866        0.1972494        140.8866        0.2056797        67.39114
4.8674                 0.2048894        67.40435        0.2001076        136.6532        0.2001077        136.6532        0.2048894        67.40451
4.8688                  0.203818        67.38424        0.2030087        132.5171        0.2030088        132.5171        0.2038181        67.38442
4.8702                 0.2024563        67.35219        0.2059407        128.4776        0.2059408        128.4776        0.2024564        67.35235
4.8716                 0.2008107        67.32972        0.2088911        124.5326        0.2088911        124.5326        0.2008109        67.32988