! TOUCHSTONE file generated by CST MICROWAVE STUDIO
! Date and time: Mon Dec  2 04:50:22 2024
! Project name: test_tuning.cst
! Parameters = {airCoaxOuterDiameter=3; chamferAngle=45; chamferWidth=24; connectorLength=10; drillingHoleDiameter=4.1; feedLength=60; flareDiameter=130; flareLength=70; gratingDistance=0; gratingGap=1.90274; outletLength=5; polarizerLength=134; probe1Diameter=1.3; probe1Distance=14; probe1Length=12; probe2Diameter=1.3; probe2Distance=0; probe2Length=12; probeLength=12; smaInnerDiameter=1.3; smaOuterDiameter=4.1; transitionCoefficient=1.33; waveguideFeedLength=30; waveguideSide=50; waveguideThickness=3; wireCount=25; wireDiameter=1.17699}
! Header version: 2024
! Port assignment regex: !\s*Touchstone port\s*([0-9]+)\s*=\s*(CST MWS port|CST DES external port|CST DES block port)\s*(.+)\s* \(\"(.*)\"\)(\s*mode\s*([0-9]+))?.*
! Touchstone port assignment:
! Touchstone port 1 = CST MWS port 1 ("Input1")
! Touchstone port 2 = CST MWS port 2 ("Input2")
# GHz S MA R 50
4.6                    0.2007941       -173.4074        0.6570321        65.77912        0.6570328        65.77922        0.2007933       -173.4077
4.6014                 0.2063125       -173.7619         0.659758        64.89447        0.6597586        64.89458        0.2063117       -173.7623
4.6028                 0.2119271       -174.1415        0.6623892        63.99258        0.6623899        63.99269        0.2119263       -174.1418
4.6042                 0.2176336       -174.5463        0.6649111          63.074        0.6649119         63.0741        0.2176329       -174.5467
4.6056                 0.2234278       -174.9767        0.6673091        62.13937        0.6673098        62.13947        0.2234271        -174.977
4.607                  0.2293047       -175.4325        0.6695695        61.18941        0.6695703        61.18949        0.2293041       -175.4328
4.6084                 0.2352594       -175.9138        0.6716797        60.22493        0.6716805        60.22503        0.2352588       -175.9141
4.6098                 0.2412865       -176.4203        0.6736279         59.2468        0.6736288        59.24691        0.2412859       -176.4206
4.6112                 0.2473804       -176.9518        0.6754035        58.25599        0.6754044        58.25608        0.2473797       -176.9521
4.6126                 0.2535351       -177.5078        0.6769969        57.25346        0.6769978        57.25355        0.2535345       -177.5081
4.614                  0.2597448        -178.088        0.6783999        56.24024        0.6784009        56.24033        0.2597442       -178.0883
4.6154                 0.2660033       -178.6919        0.6796054        55.21739        0.6796065        55.21748        0.2660027       -178.6922
4.6168                 0.2723041        -179.319        0.6806079          54.186        0.6806089        54.18608        0.2723035       -179.3193
4.6182                 0.2786407       -179.9688        0.6814027        53.14716        0.6814039        53.14724        0.2786401        -179.969
4.6196                 0.2850065        179.3594        0.6819871        52.10197        0.6819882        52.10206        0.2850059        179.3591
4.621                  0.2913947         178.666        0.6823591        51.05154        0.6823602        51.05162         0.291394        178.6657
4.6224                 0.2977981        177.9516        0.6825185        49.99696        0.6825196        49.99704        0.2977975        177.9514
4.6238                 0.3042098        177.2169        0.6824662        48.93928        0.6824674        48.93936        0.3042092        177.2167
4.6252                 0.3106225        176.4624        0.6822045        47.87958        0.6822058        47.87964        0.3106218        176.4622
4.6266                 0.3170287        175.6888         0.681737        46.81884        0.6817382        46.81891        0.3170281        175.6886
4.628                   0.323421        174.8965        0.6810681        45.75807        0.6810693        45.75812        0.3234203        174.8963
4.6294                 0.3297915        174.0863        0.6802039        44.69815        0.6802052        44.69821        0.3297908         174.086
4.6308                 0.3361325        173.2586        0.6791512           43.64        0.6791525        43.64005        0.3361318        173.2584
4.6322                  0.342436        172.4141        0.6779178        42.58442        0.6779191        42.58447        0.3424352        172.4139
4.6336                 0.3486937        171.5534        0.6765127        41.53216        0.6765139         41.5322         0.348693        171.5532
4.635                  0.3548976        170.6771        0.6749454        40.48389        0.6749466        40.48393        0.3548969        170.6769
4.6364                 0.3610391        169.7858        0.6732261        39.44022        0.6732274        39.44026        0.3610384        169.7856
4.6378                 0.3671097          168.88         0.671366        38.40168        0.6713672        38.40171        0.3671091        168.8799
4.6392                  0.373101        167.9605        0.6693762        37.36869        0.6693774        37.36871        0.3731003        167.9603
4.6406                  0.379004        167.0277        0.6672687        36.34159        0.6672701        36.34161        0.3790034        167.0276
4.642                  0.3848102        166.0825        0.6650557        35.32063        0.6650569        35.32065        0.3848095        166.0824
4.6434                 0.3905106        165.1253        0.6627492        34.30595        0.6627504        34.30596        0.3905099        165.1252
4.6448                 0.3960964        164.1569        0.6603613         33.2976        0.6603624        33.29761        0.3960957        164.1568
4.6462                 0.4015586        163.1779        0.6579044        32.29552        0.6579055        32.29553         0.401558        163.1778
4.6476                 0.4068886        162.1891        0.6553901        31.29955        0.6553912        31.29955        0.4068881         162.189
4.649                  0.4120775         161.191        0.6528301        30.30941         0.652831        30.30942         0.412077        161.1909
4.6504                 0.4171167        160.1846        0.6502351        29.32475        0.6502361        29.32474        0.4171162        160.1845
4.6518                 0.4219975        159.1704        0.6476156        28.34507        0.6476166        28.34506         0.421997        159.1703
4.6532                 0.4267115        158.1493        0.6449813        27.36982        0.6449823        27.36982         0.426711        158.1492
4.6546                 0.4312504         157.122        0.6423411        26.39833        0.6423419        26.39832        0.4312499        157.1219
4.656                  0.4356063        156.0894        0.6397026        25.42985        0.6397034        25.42985        0.4356059        156.0893
4.6574                 0.4397714        155.0523        0.6370729        24.46355        0.6370738        24.46354         0.439771        155.0523
4.6588                 0.4437382        154.0116        0.6344578        23.49852        0.6344586         23.4985        0.4437379        154.0116
4.6602                 0.4474998        152.9682        0.6318618        22.53378        0.6318626        22.53376        0.4474995        152.9681
4.6616                 0.4510493        151.9229        0.6292885        21.56831        0.6292893        21.56829         0.451049        151.9229
4.663                  0.4543805        150.8768        0.6267399        20.60105        0.6267405        20.60103        0.4543803        150.8768
4.6644                 0.4574877        149.8309        0.6242169        19.63089        0.6242176        19.63087        0.4574874        149.8308
4.6658                 0.4603655         148.786        0.6217193         18.6567        0.6217199        18.65668        0.4603653         148.786
4.6672                 0.4630093        147.7433        0.6192453        17.67735        0.6192458        17.67733        0.4630091        147.7433
4.6686                  0.465415        146.7039         0.616792        16.69172        0.6167925         16.6917        0.4654149        146.7039
4.67                   0.4675792        145.6688        0.6143553        15.69867        0.6143558        15.69866        0.4675792        145.6688
4.6714                 0.4694993        144.6393        0.6119299        14.69714        0.6119304        14.69712        0.4694992        144.6392
4.6728                 0.4711732        143.6163        0.6095095        13.68605        0.6095099        13.68604        0.4711732        143.6163
4.6742                 0.4725998        142.6013        0.6070865        12.66442        0.6070868        12.66441           0.4726        142.6013
4.6756                 0.4737789        141.5953        0.6046527        11.63129         0.604653        11.63128        0.4737791        141.5953
4.677                   0.474711        140.5998        0.6021985        10.58579        0.6021989        10.58578        0.4747113        140.5998
4.6784                 0.4753978        139.6159        0.5997144        9.527106        0.5997146        9.527099         0.475398        139.6158
4.6798                 0.4758416        138.6449        0.5971893        8.454529        0.5971896        8.454521        0.4758419        138.6449
4.6812                  0.476046        137.6884        0.5946123        7.367424        0.5946125        7.367418        0.4760462        137.6883
4.6826                 0.4760155        136.7475        0.5919717        6.265247        0.5919719        6.265243        0.4760158        136.7475
4.684                  0.4757558        135.8237        0.5892556        5.147558        0.5892559        5.147556        0.4757562        135.8237
4.6854                 0.4752738        134.9185        0.5864521        4.014011        0.5864523        4.014011        0.4752741        134.9185
4.6868                 0.4745772        134.0332         0.583549        2.864363        0.5835491        2.864364        0.4745775        134.0332
4.6882                 0.4736749        133.1693        0.5805342         1.69847        0.5805344        1.698473        0.4736753        133.1692
4.6896                 0.4725774        132.3281         0.577396       0.5162908         0.577396       0.5162958        0.4725778         132.328
4.691                  0.4712961        131.5111        0.5741226      -0.6821166        0.5741228      -0.6821099        0.4712965         131.511
4.6924                 0.4698433        130.7196        0.5707031       -1.896596        0.5707032       -1.896587        0.4698437        130.7196
4.6938                 0.4682328         129.955        0.5671266       -3.126895        0.5671268       -3.126885        0.4682333         129.955
4.6952                 0.4664796        129.2186        0.5633833       -4.372668        0.5633834       -4.372656        0.4664801        129.2186
4.6966                 0.4645997        128.5116        0.5594637       -5.633478        0.5594638       -5.633465        0.4646002        128.5116
4.698                  0.4626099        127.8352        0.5553591       -6.908804        0.5553592       -6.908791        0.4626104        127.8351
4.6994                 0.4605284        127.1903        0.5510617        -8.19804        0.5510619        -8.19804        0.4605289        127.1903
4.7008                 0.4583743         126.578        0.5465648       -9.500516        0.5465649       -9.500488        0.4583747         126.578
4.7022                 0.4561674         125.999        0.5418621       -10.81542        0.5418623       -10.81542        0.4561678         125.999
4.7036                 0.4539282        125.4539        0.5369491       -12.14197        0.5369493       -12.14197        0.4539287        125.4539
4.705                  0.4516782        124.9433        0.5318216       -13.47924        0.5318217       -13.47924        0.4516787        124.9432
4.7064                 0.4494391        124.4672        0.5264769       -14.82627         0.526477       -14.82624        0.4494395        124.4671
4.7078                 0.4472331        124.0258         0.520913       -16.18202        0.5209131       -16.18199        0.4472334        124.0257
4.7092                 0.4450823        123.6187        0.5151295       -17.54542        0.5151297        -17.5454        0.4450827        123.6187
4.7106                 0.4430094        123.2455        0.5091268       -18.91528         0.509127       -18.91526        0.4430097        123.2455
4.712                  0.4410363        122.9054        0.5029066       -20.29046        0.5029067       -20.29044        0.4410366        122.9054
4.7134                 0.4391849        122.5973        0.4964713       -21.66968        0.4964715       -21.66966        0.4391852        122.5972
4.7148                 0.4374762        122.3197        0.4898249       -23.05164        0.4898251       -23.05162        0.4374765        122.3196
4.7162                 0.4359306        122.0708        0.4829722       -24.43502        0.4829724         -24.435        0.4359308        122.0707
4.7176                 0.4345671        121.8487        0.4759191        -25.8184        0.4759193       -25.81838        0.4345673        121.8486
4.719                  0.4334036        121.6509        0.4686724       -27.20037        0.4686726       -27.20035        0.4334038        121.6508
4.7204                 0.4324563        121.4748        0.4612401       -28.57945        0.4612403       -28.57942        0.4324566        121.4748
4.7218                 0.4317399        121.3174        0.4536309       -29.95411        0.4536311        -29.9541        0.4317401        121.3174
4.7232                 0.4312666        121.1756        0.4458545       -31.32282        0.4458547       -31.32281        0.4312668        121.1755
4.7246                  0.431047        121.0459        0.4379216       -32.68398        0.4379217       -32.68396        0.4310472        121.0459
4.726                  0.4310892        120.9249        0.4298432       -34.03595        0.4298434       -34.03593        0.4310893        120.9248
4.7274                 0.4313987        120.8086        0.4216315       -35.37706        0.4216317       -35.37704        0.4313988        120.8086
4.7288                 0.4319788        120.6936        0.4132993       -36.70561        0.4132994        -36.7056        0.4319788        120.6936
4.7302                   0.43283         120.576        0.4048597       -38.01986        0.4048598       -38.01984        0.4328301        120.5759
4.7316                 0.4339504         120.452        0.3963267       -39.31802        0.3963268       -39.31802        0.4339505        120.4519
4.733                  0.4353357         120.318        0.3877145        -40.5983        0.3877147       -40.59829        0.4353358         120.318
4.7344                  0.436979        120.1705         0.379038       -41.85885        0.3790381       -41.85884         0.436979        120.1705
4.7358                 0.4388709        120.0063        0.3703121       -43.09781        0.3703123        -43.0978         0.438871        120.0063
4.7372                 0.4410003        119.8222        0.3615524       -44.31326        0.3615525       -44.31325        0.4410003        119.8222
4.7386                 0.4433535        119.6155        0.3527742       -45.50332        0.3527743        -45.5033        0.4433535        119.6155
4.74                   0.4459154        119.3834        0.3439935       -46.66601        0.3439935       -46.66601        0.4459155        119.3834
4.7414                 0.4486692        119.1239        0.3352258       -47.79943        0.3352259       -47.79941        0.4486692        119.1239
4.7428                 0.4515963        118.8351        0.3264871       -48.90159        0.3264872       -48.90158        0.4515964        118.8351
4.7442                 0.4546773        118.5151        0.3177931       -49.97057        0.3177931       -49.97056        0.4546774        118.5151
4.7456                 0.4578918        118.1629        0.3091593       -51.00442        0.3091594       -51.00441        0.4578918        118.1629
4.747                  0.4612181        117.7773        0.3006012       -52.00125        0.3006013       -52.00124        0.4612182        117.7774
4.7484                 0.4646347        117.3579         0.292134       -52.95918         0.292134       -52.95917        0.4646348        117.3579
4.7498                 0.4681193         116.904        0.2837723       -53.87642        0.2837723        -53.8764        0.4681194         116.904
4.7512                 0.4716494        116.4156        0.2755305       -54.75123        0.2755305       -54.75122        0.4716496        116.4156
4.7526                 0.4752028        115.8928        0.2674225         -55.582        0.2674225       -55.58198        0.4752029        115.8928
4.754                  0.4787571        115.3359        0.2594616       -56.36721        0.2594616        -56.3672        0.4787572         115.336
4.7554                 0.4822905        114.7455        0.2516604       -57.10555        0.2516604       -57.10554        0.4822907        114.7456
4.7568                 0.4857816        114.1223        0.2440308       -57.79582        0.2440308       -57.79581        0.4857819        114.1223
4.7582                 0.4892097        113.4672        0.2365839       -58.43712        0.2365839       -58.43711        0.4892099        113.4672
4.7596                 0.4925546        112.7811        0.2293301       -59.02873        0.2293301        -59.0287        0.4925549        112.7811
4.761                  0.4957969        112.0652        0.2222786       -59.57024        0.2222785       -59.57021        0.4957972        112.0653
4.7624                 0.4989184        111.3208        0.2154375       -60.06159        0.2154375       -60.06156        0.4989186        111.3209
4.7638                 0.5019013        110.5492         0.208814       -60.50307         0.208814       -60.50303        0.5019017        110.5493
4.7652                 0.5047294        109.7518        0.2024141       -60.89533        0.2024141       -60.89529        0.5047298        109.7518
4.7666                 0.5073873        108.9301        0.1962424       -61.23947        0.1962424       -61.23944        0.5073877        108.9301
4.768                  0.5098608        108.0855        0.1903023       -61.53703        0.1903023       -61.53698        0.5098611        108.0855
4.7694                 0.5121366        107.2196        0.1845956          -61.79        0.1845956       -61.78995         0.512137        107.2196
4.7708                 0.5142031         106.334        0.1791231       -62.00084        0.1791231       -62.00079        0.5142036        106.3341
4.7722                 0.5160496        105.4303        0.1738838       -62.17248        0.1738838       -62.17243          0.51605        105.4304
4.7736                 0.5176665        104.5101        0.1688754       -62.30829        0.1688755       -62.30823         0.517667        104.5102
4.775                   0.519046         103.575        0.1640943       -62.41203        0.1640943       -62.41197        0.5190465        103.5751
4.7764                  0.520181        102.6266        0.1595353       -62.48788        0.1595353       -62.48783        0.5201816        102.6267
4.7778                 0.5210661        101.6666        0.1551919       -62.54032        0.1551919       -62.54024        0.5210667        101.6667
4.7792                  0.521697        100.6966        0.1510564       -62.57405        0.1510565       -62.57398        0.5216975        100.6966
4.7806                 0.5220706          99.718        0.1471202       -62.59403        0.1471202       -62.59395        0.5220711        99.71803
4.782                  0.5221852        98.73254        0.1433732       -62.60525        0.1433733       -62.60517        0.5221858        98.73259
4.7834                 0.5220405        97.74175        0.1398048       -62.61273        0.1398049       -62.61265         0.522041         97.7418
4.7848                  0.521637        96.74717        0.1364037       -62.62146        0.1364038       -62.62138        0.5216376        96.74723
4.7862                 0.5209769        95.75029        0.1331577       -62.63623        0.1331578       -62.63616        0.5209775        95.75034
4.7876                 0.5200633        94.75261        0.1300545       -62.66169        0.1300546       -62.66162        0.5200639        94.75263
4.789                  0.5189007        93.75555        0.1270816       -62.70212        0.1270818       -62.70205        0.5189013        93.75557
4.7904                 0.5174944        92.76054        0.1242265       -62.76153        0.1242267       -62.76148         0.517495        92.76057
4.7918                 0.5158509        91.76891        0.1214767       -62.84356        0.1214768       -62.84348        0.5158517        91.76894
4.7932                 0.5139782          90.782          0.11882       -62.95139        0.1188201       -62.95134        0.5139789        90.78208
4.7946                 0.5118846        89.80112        0.1162447        -63.0879        0.1162448       -63.08785        0.5118853        89.80117
4.796                  0.5095797        88.82745        0.1137396       -63.25553        0.1137398       -63.25547        0.5095804         88.8275
4.7974                 0.5070739        87.86217        0.1112941       -63.45629        0.1112943       -63.45625        0.5070747        87.86219
4.7988                 0.5043785        86.90631        0.1088985       -63.69191        0.1088987       -63.69187        0.5043792        86.90636
4.8002                 0.5015053        85.96096        0.1065436       -63.96378        0.1065438       -63.96376        0.5015061          85.961
4.8016                  0.498467        85.02704         0.104221       -64.27303        0.1042212       -64.27301        0.4984678        85.02706
4.803                  0.4952768        84.10538        0.1019235       -64.62054        0.1019237       -64.62054        0.4952776         84.1054
4.8044                 0.4919482        83.19674        0.0996442       -65.00706        0.0996444       -65.00706         0.491949        83.19678
4.8058                 0.4884952        82.30182       0.09737738       -65.43323       0.09737757       -65.43325        0.4884959        82.30184
4.8072                 0.4849321         81.4211       0.09511791       -65.89966       0.09511811       -65.89966        0.4849329        81.42112
4.8086                 0.4812734        80.55505       0.09286148       -66.40693       0.09286165       -66.40695        0.4812742        80.55508
4.81                   0.4775335        79.70398       0.09060441       -66.95577       0.09060457       -66.95581        0.4775343        79.70402
4.8114                 0.4737268        78.86807       0.08834365       -67.54706       0.08834381       -67.54709        0.4737276        78.86808
4.8128                 0.4698677        78.04732       0.08607677       -68.18184        0.0860769       -68.18189        0.4698685        78.04734
4.8142                 0.4659701        77.24166       0.08380178       -68.86153       0.08380192       -68.86159        0.4659708        77.24167
4.8156                 0.4620474        76.45082        0.0815172       -69.58787       0.08151732       -69.58794        0.4620482        76.45083
4.817                  0.4581127        75.67437       0.07922188       -70.36306       0.07922199       -70.36316        0.4581135        75.67438
4.8184                 0.4541784        74.91178       0.07691502       -71.18987       0.07691511       -71.18995        0.4541792        74.91179
4.8198                 0.4502558        74.16232       0.07459607       -72.07164       0.07459614       -72.07173        0.4502567        74.16232
4.8212                 0.4463559        73.42509       0.07226473       -73.01248       0.07226481       -73.01258        0.4463567        73.42511
4.8226                 0.4424881        72.69911       0.06992089       -74.01738       0.06992094       -74.01749        0.4424889        72.69911
4.824                   0.438661        71.98316        0.0675646       -75.09232       0.06756463       -75.09243        0.4386618        71.98317
4.8254                 0.4348821        71.27596       0.06519606       -76.24446       0.06519609       -76.24455        0.4348829        71.27596
4.8268                 0.4311574        70.57606       0.06281566       -77.48231       0.06281566       -77.48243        0.4311582        70.57606
4.8282                 0.4274919        69.88191       0.06042397       -78.81608       0.06042396       -78.81622        0.4274926         69.8819
4.8296                 0.4238887        69.19183       0.05802185       -80.25792       0.05802184       -80.25805        0.4238895        69.19182
4.831                  0.4203501        68.50409        0.0556105       -81.82229       0.05561047       -81.82241        0.4203509        68.50408
4.8324                 0.4168766        67.81687       0.05319161        -83.5265       0.05319156       -83.52664        0.4168773        67.81686
4.8338                 0.4134674         67.1283       0.05076753       -85.39137       0.05076748        -85.3915         0.413468        67.12828
4.8352                 0.4101201        66.43647       0.04834157       -87.44191       0.04834151       -87.44203        0.4101208        66.43645
4.8366                 0.4068312         65.7395       0.04591831       -89.70837       0.04591824        -89.7085        0.4068318        65.73948
4.838                  0.4035957        65.03546       0.04350406       -92.22742       0.04350398       -92.22755        0.4035963        65.03543
4.8394                 0.4004074        64.32248       0.04110748       -95.04364       0.04110739       -95.04376        0.4004079        64.32245
4.8408                 0.3972587        63.59879       0.03874042       -98.21105       0.03874033       -98.21119        0.3972592        63.59876
4.8422                 0.3941412        62.86259       0.03641902        -101.795       0.03641892       -101.7951        0.3941417        62.86256
4.8436                 0.3910453        62.11225       0.03416503       -105.8732       0.03416493       -105.8733        0.3910458        62.11222
4.845                  0.3879607        61.34621       0.03200771        -110.536       0.03200761       -110.5361        0.3879611        61.34618
4.8464                 0.3848761        60.56303       0.02998574       -115.8832       0.02998563       -115.8833        0.3848765        60.56298
4.8478                 0.3817797        59.76137       0.02814933       -122.0148       0.02814922       -122.0149        0.3817801        59.76133
4.8492                 0.3786593        58.94009       0.02656149       -129.0121       0.02656139       -129.0123        0.3786597        58.94004
4.8506                  0.375502        58.09816        0.0252971       -136.9048       0.02529699       -136.9049        0.3755024         58.0981
4.852                  0.3722951        57.23467       0.02443772       -145.6279       0.02443762       -145.6281        0.3722954        57.23464
4.8534                 0.3690254        56.34894       0.02406084       -154.9862       0.02406075       -154.9864        0.3690257        56.34889
4.8548                   0.36568        55.44038       0.02422488       -164.6557       0.02422479       -164.6559        0.3656802        55.44033
4.8562                 0.3622459        54.50859       0.02495571        -174.244       0.02495563       -174.2442        0.3622461        54.50854
4.8576                 0.3587104        53.55332       0.02624224        176.6114       0.02624217        176.6111        0.3587107        53.55327
4.859                  0.3550615        52.57447       0.02804302        168.1615       0.02804295        168.1612        0.3550616        52.57443
4.8604                 0.3512872         51.5721       0.03029955        160.5217       0.03029949        160.5215        0.3512873        51.57205
4.8618                 0.3473763         50.5464       0.03294909        153.6963       0.03294903        153.6961        0.3473764        50.54636
4.8632                 0.3433183        49.49773       0.03593305        147.6212       0.03593299        147.6211        0.3433184        49.49768
4.8646                 0.3391033        48.42656       0.03920076        142.2026       0.03920071        142.2024        0.3391034        48.42652
4.866                  0.3347223        47.33353       0.04271011        137.3403       0.04271005        137.3401        0.3347224        47.33348
4.8674                 0.3301672        46.21936       0.04642667        132.9414       0.04642661        132.9413        0.3301671        46.21932
4.8688                 0.3254304        45.08496       0.05032229        128.9249       0.05032223        128.9248        0.3254304        45.08492
4.8702                  0.320506        43.93133       0.05437373        125.2224       0.05437367        125.2223        0.3205059        43.93129
4.8716                 0.3153884        42.75959       0.05856143        121.7777       0.05856136        121.7776        0.3153884        42.75956