! TOUCHSTONE file generated by CST MICROWAVE STUDIO
! Date and time: Mon Dec  2 04:50:26 2024
! Project name: test_tuning.cst
! Parameters = {airCoaxOuterDiameter=3; chamferAngle=45; chamferWidth=24; connectorLength=10; drillingHoleDiameter=4.1; feedLength=60; flareDiameter=130; flareLength=70; gratingDistance=0; gratingGap=1.90274; outletLength=110; polarizerLength=134; probe1Diameter=1.3; probe1Distance=14; probe1Length=12; probe2Diameter=1.3; probe2Distance=0; probe2Length=12; probeLength=12; smaInnerDiameter=1.3; smaOuterDiameter=4.1; transitionCoefficient=1.33; waveguideFeedLength=30; waveguideSide=50; waveguideThickness=3; wireCount=25; wireDiameter=1.17699}
! Header version: 2024
! Port assignment regex: !\s*Touchstone port\s*([0-9]+)\s*=\s*(CST MWS port|CST DES external port|CST DES block port)\s*(.+)\s* \(\"(.*)\"\)(\s*mode\s*([0-9]+))?.*
! Touchstone port assignment:
! Touchstone port 1 = CST MWS port 1 ("Input1")
! Touchstone port 2 = CST MWS port 2 ("Input2")
# GHz S MA R 50
4.6                    0.2164193       -160.3363        0.5909102        66.08112        0.5909107        66.08113        0.2164193       -160.3365
4.6014                 0.2234681       -160.9426        0.5927413        65.26029        0.5927416        65.26027        0.2234681       -160.9428
4.6028                 0.2305915       -161.5955        0.5945947        64.43177        0.5945948        64.43173        0.2305915       -161.5957
4.6042                 0.2377319       -162.2877        0.5964852        63.59059        0.5964852        63.59056        0.2377319       -162.2879
4.6056                 0.2448463       -163.0073        0.5984012        62.73137         0.598401        62.73134        0.2448462       -163.0074
4.607                   0.251915       -163.7402        0.6003046        61.84948        0.6003042        61.84948        0.2519148       -163.7403
4.6084                 0.2589455       -164.4737        0.6021378        60.94216        0.6021374        60.94218        0.2589454       -164.4739
4.6098                   0.26597       -165.1988        0.6038338        60.00908        0.6038335         60.0091        0.2659698       -165.1989
4.6112                 0.2730371       -165.9115         0.605329        59.05238        0.6053289        59.05243         0.273037       -165.9116
4.6126                 0.2802007       -166.6139        0.6065745        58.07628        0.6065747        58.07632        0.2802006        -166.614
4.614                  0.2875069       -167.3128        0.6075438        57.08607        0.6075442        57.08611        0.2875068       -167.3128
4.6154                 0.2949833       -168.0177        0.6082355        56.08709        0.6082359        56.08712        0.2949832       -168.0177
4.6168                 0.3026328       -168.7389        0.6086699        55.08364        0.6086705        55.08364        0.3026328       -168.7389
4.6182                 0.3104336       -169.4843        0.6088815        54.07816         0.608882        54.07814        0.3104337       -169.4843
4.6196                 0.3183452       -170.2583        0.6089068        53.07091        0.6089072        53.07088        0.3183453       -170.2583
4.621                  0.3263182       -171.0604        0.6087734        52.06016        0.6087735        52.06011        0.3263184       -171.0605
4.6224                 0.3343077       -171.8862        0.6084895        51.04282        0.6084894        51.04277        0.3343079       -171.8862
4.6238                 0.3422848       -172.7278        0.6080393        50.01551         0.608039        50.01549         0.342285       -172.7279
4.6252                 0.3502446       -173.5767        0.6073836        48.97572        0.6073832        48.97571        0.3502448       -173.5768
4.6266                 0.3582099       -174.4253         0.606465        47.92281        0.6064646        47.92282        0.3582101       -174.4254
4.628                  0.3662279       -175.2691        0.6052198        46.85868        0.6052194        46.85871        0.3662282       -175.2691
4.6294                 0.3743616       -176.1076        0.6035894        45.78802        0.6035892        45.78805        0.3743619       -176.1077
4.6308                 0.3826777       -176.9454         0.601534        44.71787         0.601534        44.71791        0.3826781       -176.9454
4.6322                 0.3912327       -177.7907        0.5990408        43.65695         0.599041        43.65698        0.3912331       -177.7907
4.6336                 0.4000612       -178.6549        0.5961297         42.6145        0.5961299        42.61452        0.4000616       -178.6549
4.635                   0.409167       -179.5499        0.5928524        41.59913        0.5928527        41.59913        0.4091675       -179.5499
4.6364                 0.4185216        179.5133        0.5892863        40.61774        0.5892867        40.61772        0.4185221        179.5132
4.6378                 0.4280668        178.5263        0.5855253        39.67471        0.5855256        39.67468        0.4280674        178.5263
4.6392                 0.4377235        177.4847        0.5816675        38.77159        0.5816676        38.77155         0.437724        177.4846
4.6406                 0.4474016        176.3876        0.5778041        37.90721         0.577804        37.90717        0.4474021        176.3875
4.642                  0.4570119        175.2377        0.5740107         37.0782        0.5740104        37.07817        0.4570124        175.2377
4.6434                 0.4664745        174.0403        0.5703426        36.27983        0.5703423        36.27981        0.4664749        174.0402
4.6448                 0.4757246        172.8017        0.5668347        35.50687        0.5668344        35.50687         0.475725        172.8016
4.6462                 0.4847138        171.5286        0.5635055        34.75437        0.5635051        34.75439        0.4847142        171.5286
4.6476                 0.4934076         170.227        0.5603625        34.01807        0.5603623         34.0181        0.4934081         170.227
4.649                  0.5017808         168.902        0.5574096        33.29447        0.5574096        33.29449        0.5017813        168.9019
4.6504                 0.5098114        167.5573        0.5546518        32.58053         0.554652        32.58055        0.5098119        167.5573
4.6518                 0.5174757        166.1962        0.5520972        31.87318        0.5520974        31.87319        0.5174762        166.1962
4.6532                 0.5247455        164.8217        0.5497555        31.16881        0.5497559         31.1688        0.5247461        164.8216
4.6546                 0.5315886        163.4371        0.5476341        30.46285        0.5476343        30.46283        0.5315891         163.437
4.656                  0.5379717        162.0467        0.5457311         29.7498        0.5457313        29.74977        0.5379723        162.0467
4.6574                 0.5438669        160.6559        0.5440306        29.02355        0.5440306        29.02351        0.5438674        160.6559
4.6588                  0.549257        159.2709         0.542498        28.27808        0.5424978        28.27804        0.5492575        159.2708
4.6602                 0.5541422        157.8984        0.5410808        27.50829        0.5410804        27.50827        0.5541426        157.8984
4.6616                 0.5585429        156.5451        0.5397116        26.71093        0.5397112        26.71093        0.5585434        156.5451
4.663                  0.5625004        155.2166        0.5383163        25.88516        0.5383159        25.88517        0.5625008        155.2166
4.6644                 0.5660723        153.9168        0.5368228        25.03275        0.5368225        25.03278        0.5660728        153.9168
4.6658                 0.5693264        152.6474        0.5351716        24.15794        0.5351715        24.15797        0.5693267        152.6473
4.6672                 0.5723308        151.4077        0.5333232        23.26666        0.5333232         23.2667        0.5723312        151.4077
4.6686                 0.5751455        150.1951        0.5312625        22.36565        0.5312627        22.36568        0.5751459        150.1951
4.67                   0.5778132        149.0052         0.528999        21.46131        0.5289993        21.46133        0.5778137        149.0052
4.6714                  0.580356        147.8332        0.5265623        20.55868        0.5265626        20.55869        0.5803564        147.8332
4.6728                  0.582774        146.6745        0.5239939         19.6608        0.5239942        19.66078        0.5827745        146.6745
4.6742                 0.5850499        145.5257        0.5213373        18.76831        0.5213375        18.76828        0.5850504        145.5257
4.6756                 0.5871561         144.385        0.5186284        17.87976        0.5186285        17.87974        0.5871565         144.385
4.677                  0.5890637        143.2527        0.5158881        16.99222         0.515888        16.99219        0.5890641        143.2527
4.6784                 0.5907518        142.1305        0.5131183        16.10222        0.5131181         16.1022        0.5907521        142.1305
4.6798                 0.5922136        141.0212        0.5103036        15.20682        0.5103033        15.20681         0.592214        141.0212
4.6812                 0.5934603        139.9279        0.5074156        14.30446        0.5074153        14.30447        0.5934608        139.9279
4.6826                 0.5945197         138.853        0.5044214        13.39554        0.5044212        13.39556          0.59452         138.853
4.684                  0.5954308        137.7975        0.5012925        12.48243        0.5012925        12.48245        0.5954311        137.7975
4.6854                 0.5962367        136.7609        0.4980126        11.56909        0.4980127        11.56911         0.596237        136.7609
4.6868                  0.596976        135.7408        0.4945829        10.66028        0.4945831         10.6603        0.5969764        135.7408
4.6882                 0.5976744        134.7338        0.4910228        9.760569         0.491023        9.760567        0.5976748        134.7338
4.6896                 0.5983401        133.7356        0.4873667         8.87336        0.4873669        8.873345        0.5983406        133.7356
4.691                  0.5989634        132.7425        0.4836577        8.000198        0.4836579        8.000169        0.5989638        132.7425
4.6924                 0.5995187        131.7516         0.479939        7.140416         0.479939        7.140378        0.5995192        131.7515
4.6938                 0.5999723        130.7614        0.4762446        6.291323        0.4762445        6.291283        0.5999728        130.7614
4.6952                 0.6002895        129.7725        0.4725938        5.448827        0.4725936        5.448793          0.60029        129.7725
4.6966                 0.6004438        128.7868        0.4689876        4.608388        0.4689872        4.608367        0.6004444        128.7868
4.698                  0.6004232        127.8072        0.4654092        3.766076        0.4654088        3.766072        0.6004238        127.8072
4.6994                 0.6002328        126.8368        0.4618302        2.919474        0.4618298        2.919488        0.6002333        126.8368
4.7008                 0.5998941        125.8784        0.4582173        2.068243         0.458217        2.068271        0.5998946        125.8784
4.7022                 0.5994402        124.9332        0.4545413        1.214182        0.4545411         1.21422        0.5994408        124.9332
4.7036                 0.5989091        124.0012        0.4507844       0.3608136        0.4507843       0.3608543        0.5989096        124.0012
4.705                  0.5983341        123.0805        0.4469451      -0.4874427        0.4469452       -0.487407        0.5983346        123.0805
4.7064                 0.5977375        122.1682        0.4430391       -1.326315        0.4430392       -1.326288        0.5977381        122.1682
4.7078                 0.5971259        121.2606        0.4390958       -2.152617         0.439096       -2.152617        0.5971265        121.2606
4.7092                 0.5964883        120.3543        0.4351528        -2.96519         0.435153        -2.96519        0.5964887        120.3543
4.7106                 0.5957994        119.4467        0.4312472        -3.76499        0.4312473       -3.765005        0.5957999        119.4466
4.712                  0.5950266        118.5366         0.427408       -4.555142         0.427408       -4.555159         0.595027        118.5366
4.7134                 0.5941362        117.6247        0.4236497       -5.340127        0.4236497       -5.340141        0.5941366        117.6247
4.7148                 0.5931028        116.7129        0.4199699       -6.124843        0.4199697       -6.124847        0.5931032        116.7129
4.7162                 0.5919142        115.8039        0.4163504        -6.91349        0.4163503       -6.913482        0.5919145        115.8039
4.7176                 0.5905745         114.901        0.4127621       -7.708638         0.412762       -7.708616        0.5905748         114.901
4.719                  0.5891033        114.0067        0.4091722       -8.510653        0.4091722       -8.510622        0.5891035        114.0067
4.7204                 0.5875309        113.1224        0.4055524       -9.317671        0.4055524       -9.317636        0.5875313        113.1224
4.7218                 0.5858918         112.248        0.4018856       -10.12605        0.4018858       -10.12602        0.5858921         112.248
4.7232                 0.5842161        111.3818        0.3981704       -10.93127        0.3981706       -10.93125        0.5842163        111.3819
4.7246                  0.582523        110.5212        0.3944209       -11.72902        0.3944211       -11.72901        0.5825233        110.5212
4.726                  0.5808169        109.6624        0.3906645       -12.51626        0.3906648       -12.51627        0.5808173        109.6625
4.7274                 0.5790861        108.8024        0.3869354       -13.29201        0.3869356       -13.29204        0.5790864        108.8025
4.7288                 0.5773052        107.9388        0.3832667       -14.05766        0.3832668        -14.0577        0.5773056        107.9388
4.7302                 0.5754422        107.0705        0.3796834       -14.81672        0.3796835       -14.81677        0.5754425        107.0705
4.7316                 0.5734647        106.1981         0.376197       -15.57413        0.3761969       -15.57417        0.5734651        106.1982
4.733                   0.571348        105.3236        0.3728028       -16.33516        0.3728026       -16.33519        0.5713484        105.3236
4.7344                 0.5690802        104.4499        0.3694818       -17.10424        0.3694816       -17.10426        0.5690806        104.4499
4.7358                 0.5666649          103.58        0.3662056       -17.88404        0.3662055       -17.88404        0.5666653          103.58
4.7372                 0.5641199        102.7164        0.3629431       -18.67487        0.3629429       -18.67486        0.5641202        102.7164
4.7386                 0.5614728        101.8606         0.359668       -19.47473        0.3596679       -19.47471        0.5614731        101.8606
4.74                   0.5587546        101.0126        0.3563652       -20.27983        0.3563652       -20.27981        0.5587549        101.0126
4.7414                  0.555992        100.1706        0.3530344       -21.08557        0.3530345       -21.08556        0.5559924        100.1707
4.7428                 0.5532016        99.33208        0.3496902       -21.88774        0.3496904       -21.88774        0.5532019        99.33208
4.7442                 0.5503851        98.49352        0.3463586       -22.68353        0.3463588       -22.68355        0.5503854        98.49354
4.7456                 0.5475293        97.65186        0.3430716       -23.47244        0.3430717       -23.47247        0.5475296        97.65191
4.747                   0.544609        96.80483        0.3398595       -24.25644        0.3398595       -24.25649        0.5446093        96.80483
4.7484                 0.5415924        95.95149        0.3367444       -25.03977        0.3367443       -25.03981        0.5415927        95.95152
4.7498                 0.5384478         95.0926        0.3337354       -25.82804        0.3337352       -25.82807        0.5384481         95.0926
4.7512                 0.5351511        94.23015        0.3308266       -26.62713        0.3308263       -26.62716        0.5351514        94.23014
4.7526                 0.5316903         93.3671         0.327999       -27.44201        0.3279987       -27.44201        0.5316906         93.3671
4.754                  0.5280675         92.5066        0.3252254       -28.27565         0.325225       -28.27565        0.5280677        92.50662
4.7554                  0.524298        91.65132        0.3224766       -29.12865        0.3224764       -29.12863        0.5242982        91.65135
4.7568                 0.5204059        90.80276        0.3197289       -29.99921        0.3197288       -29.99919        0.5204062        90.80278
4.7582                 0.5164179        89.96094        0.3169691        -30.8838        0.3169691       -30.88378        0.5164182        89.96097
4.7596                 0.5123562        89.12439        0.3141979       -31.77823        0.3141979       -31.77821        0.5123564        89.12442
4.761                  0.5082326        88.29056        0.3114294       -32.67884        0.3114294       -32.67883        0.5082329        88.29059
4.7624                 0.5040456        87.45621        0.3086883       -33.58363        0.3086883       -33.58364        0.5040459        87.45624
4.7638                 0.4997792        86.61859        0.3060039       -34.49307        0.3060038       -34.49309        0.4997795        86.61861
4.7652                 0.4954066        85.77562        0.3034033       -35.41028        0.3034032        -35.4103        0.4954069        85.77565
4.7666                 0.4908949        84.92689        0.3009057       -36.34071        0.3009055       -36.34073        0.4908952        84.92691
4.768                  0.4862122        84.07354        0.2985179       -37.29123        0.2985176       -37.29125        0.4862125         84.0736
4.7694                 0.4813335        83.21829        0.2962328       -38.26897        0.2962324       -38.26896        0.4813338        83.21832
4.7708                 0.4762456         82.3647        0.2940313       -39.28004        0.2940309       -39.28001        0.4762458        82.36473
4.7722                 0.4709485         81.5168         0.291887       -40.32862        0.2918866       -40.32857        0.4709487        81.51682
4.7736                 0.4654541        80.67803        0.2897718       -41.41649        0.2897716       -41.41644        0.4654543        80.67808
4.775                  0.4597823        79.85092        0.2876628       -42.54317        0.2876626        -42.5431        0.4597826        79.85095
4.7764                 0.4539549        79.03646        0.2855462       -43.70659        0.2855461       -43.70653        0.4539551        79.03648
4.7778                  0.447989        78.23431        0.2834209       -44.90417        0.2834208       -44.90411        0.4479892        78.23434
4.7792                 0.4418918        77.44311        0.2812972       -46.13408        0.2812972       -46.13404         0.441892        77.44314
4.7806                 0.4356578        76.66119        0.2791946       -47.39633        0.2791946        -47.3963         0.435658        76.66121
4.782                  0.4292688        75.88739        0.2771357       -48.69349        0.2771357       -48.69347        0.4292689        75.88742
4.7834                 0.4226968        75.12198        0.2751411       -50.03089         0.275141       -50.03088         0.422697          75.122
4.7848                 0.4159099        74.36717        0.2732233       -51.41632        0.2732231       -51.41629          0.41591         74.3672
4.7862                 0.4088787        73.62762        0.2713831         -52.859        0.2713828       -52.85897        0.4088788        73.62764
4.7876                 0.4015827        72.91003        0.2696084       -54.36859        0.2696081       -54.36855        0.4015828        72.91006
4.789                  0.3940152        72.22305        0.2678754       -55.95391        0.2678751       -55.95385        0.3940152        72.22307
4.7904                 0.3861848        71.57637        0.2661527       -57.62209        0.2661525       -57.62199        0.3861848         71.5764
4.7918                 0.3781152        70.98005        0.2644062       -59.37802        0.2644061       -59.37792        0.3781152        70.98011
4.7932                 0.3698417        70.44391        0.2626041       -61.22459         0.262604        -61.2245        0.3698417        70.44395
4.7946                 0.3614061        69.97704        0.2607214       -63.16314        0.2607214       -63.16303        0.3614061        69.97708
4.796                  0.3528518         69.5879         0.258742       -65.19442        0.2587421       -65.19431        0.3528518        69.58796
4.7974                   0.34422        69.28482        0.2566587       -67.31968        0.2566589       -67.31959          0.34422        69.28488
4.7988                 0.3355485        69.07671         0.254471       -69.54161        0.2544711       -69.54153        0.3355485        69.07677
4.8002                 0.3268738        68.97404        0.2521809       -71.86491        0.2521811       -71.86486        0.3268738         68.9741
4.8016                 0.3182364        68.98971        0.2497889       -74.29655         0.249789        -74.2965        0.3182363        68.98977
4.803                  0.3096881        69.13937        0.2472888       -76.84537        0.2472889       -76.84533        0.3096881        69.13945
4.8044                  0.301301        69.44113         0.244666       -79.52138         0.244666       -79.52134         0.301301        69.44118
4.8058                 0.2931741        69.91401        0.2418953       -82.33471        0.2418953       -82.33465         0.293174         69.9141
4.8072                 0.2854375        70.57568        0.2389433       -85.29447        0.2389433        -85.2944        0.2854374        70.57576
4.8086                 0.2782513         71.4387        0.2357708        -88.4078        0.2357708       -88.40772        0.2782513         71.4388
4.81                   0.2717983        72.50654        0.2323381       -91.67919        0.2323382       -91.67908        0.2717983        72.50664
4.8114                 0.2662702        73.76936        0.2286097       -95.11014        0.2286099       -95.11003        0.2662702        73.76947
4.8128                 0.2618487        75.20123        0.2245595       -98.69939        0.2245597       -98.69928        0.2618488        75.20134
4.8142                 0.2586846        76.75942        0.2201743       -102.4433        0.2201746       -102.4432        0.2586847        76.75953
4.8156                  0.256878        78.38672        0.2154562       -106.3364        0.2154565       -106.3363        0.2568781        78.38683
4.817                  0.2564647        80.01703         0.210423       -110.3726        0.2104234       -110.3725        0.2564648        80.01714
4.8184                 0.2574115         81.5826        0.2051074       -114.5455        0.2051077       -114.5454        0.2574117        81.58271
4.8198                 0.2596215        83.02166        0.1995543       -118.8492        0.1995546       -118.8492        0.2596217        83.02177
4.8212                 0.2629465        84.28413         0.193818       -123.2789        0.1938183       -123.2788        0.2629467        84.28422
4.8226                 0.2672051        85.33469        0.1879585       -127.8304        0.1879587       -127.8304        0.2672052         85.3348
4.824                   0.272199        86.15309        0.1820386       -132.5009        0.1820387       -132.5008        0.2721992        86.15319
4.8254                 0.2777283        86.73223        0.1761207       -137.2875        0.1761208       -137.2875        0.2777285        86.73233
4.8268                 0.2836012        87.07536        0.1702654       -142.1874        0.1702655       -142.1874        0.2836014        87.07545
4.8282                 0.2896396        87.19303        0.1645299       -147.1965        0.1645299       -147.1964        0.2896398        87.19311
4.8296                 0.2956819        87.10069        0.1589674       -152.3086        0.1589675       -152.3085        0.2956821        87.10077
4.831                  0.3015831         86.8167        0.1536277       -157.5148        0.1536278       -157.5148        0.3015833        86.81678
4.8324                 0.3072153        86.36122        0.1485566       -162.8031        0.1485567        -162.803        0.3072156        86.36131
4.8338                 0.3124677        85.75538        0.1437965       -168.1573        0.1437967       -168.1572         0.312468        85.75544
4.8352                 0.3172481        85.02074        0.1393863        -173.558        0.1393865       -173.5579        0.3172484         85.0208
4.8366                 0.3214838        84.17891        0.1353608       -178.9825         0.135361       -178.9824         0.321484        84.17899
4.838                  0.3251238        83.25113        0.1317499         175.594        0.1317502        175.5941        0.3251241         83.2512
4.8394                 0.3281397        82.25758        0.1285781        170.1974        0.1285783        170.1975          0.32814        82.25765
4.8408                 0.3305255         81.2169        0.1258624        164.8531        0.1258626        164.8531        0.3305257        81.21696
4.8422                 0.3322956        80.14554        0.1236119        159.5846        0.1236121        159.5846        0.3322958        80.14559
4.8436                 0.3334813        79.05722        0.1218267        154.4127        0.1218268        154.4127        0.3334816        79.05729
4.845                   0.334126         77.9627        0.1204968        149.3543        0.1204969        149.3543        0.3341263        77.96277
4.8464                 0.3342786        76.86959        0.1196026        144.4228        0.1196026        144.4228        0.3342788        76.86964
4.8478                 0.3339877        75.78264        0.1191154        139.6278        0.1191153        139.6279        0.3339879         75.7827
4.8492                 0.3332968        74.70442        0.1189984        134.9766        0.1189984        134.9767        0.3332971        74.70448
4.8506                 0.3322408        73.63591        0.1192095        130.4744        0.1192095        130.4745        0.3322409        73.63597
4.852                  0.3308441        72.57753        0.1197035        126.1258        0.1197035        126.1259        0.3308443        72.57759
4.8534                 0.3291233        71.52994        0.1204353        121.9347        0.1204353        121.9348        0.3291235        71.52996
4.8548                  0.327089        70.49456        0.1213633        117.9052        0.1213633        117.9053        0.3270892        70.49461
4.8562                 0.3247506        69.47412        0.1224513        114.0404        0.1224514        114.0406        0.3247507        69.47417
4.8576                 0.3221204        68.47237        0.1236711        110.3427        0.1236713        110.3428        0.3221204        68.47243
4.859                  0.3192168        67.49386        0.1250027         106.812        0.1250028        106.8121        0.3192168        67.49391
4.8604                 0.3160662        66.54319        0.1264333        103.4458        0.1264335        103.4458        0.3160662        66.54324
4.8618                 0.3127026        65.62435        0.1279563        100.2378        0.1279564        100.2378        0.3127026        65.62441
4.8632                 0.3091647        64.74006        0.1295677        97.17877        0.1295678        97.17877        0.3091647        64.74012
4.8646                 0.3054926        63.89128        0.1312636        94.25622        0.1312636        94.25619        0.3054926        63.89134
4.866                  0.3017229        63.07719         0.133037        91.45589        0.1330369        91.45589        0.3017228        63.07724
4.8674                  0.297885        62.29539        0.1348757        88.76304        0.1348757        88.76304        0.2978849        62.29545
4.8688                 0.2939986        61.54259        0.1367622        86.16389        0.1367622        86.16391        0.2939985        61.54266
4.8702                 0.2900728        60.81546        0.1386739        83.64698        0.1386739        83.64702        0.2900728        60.81552
4.8716                 0.2861084         60.1114        0.1405855        81.20409        0.1405855        81.20414        0.2861083        60.11147