! TOUCHSTONE file generated by CST MICROWAVE STUDIO
! Date and time: Mon Dec  2 04:50:24 2024
! Project name: test_tuning.cst
! Parameters = {airCoaxOuterDiameter=3; chamferAngle=45; chamferWidth=24; connectorLength=10; drillingHoleDiameter=4.1; feedLength=60; flareDiameter=130; flareLength=70; gratingDistance=0; gratingGap=1.90274; outletLength=50; polarizerLength=134; probe1Diameter=1.3; probe1Distance=14; probe1Length=12; probe2Diameter=1.3; probe2Distance=0; probe2Length=12; probeLength=12; smaInnerDiameter=1.3; smaOuterDiameter=4.1; transitionCoefficient=1.33; waveguideFeedLength=30; waveguideSide=50; waveguideThickness=3; wireCount=25; wireDiameter=1.17699}
! Header version: 2024
! Port assignment regex: !\s*Touchstone port\s*([0-9]+)\s*=\s*(CST MWS port|CST DES external port|CST DES block port)\s*(.+)\s* \(\"(.*)\"\)(\s*mode\s*([0-9]+))?.*
! Touchstone port assignment:
! Touchstone port 1 = CST MWS port 1 ("Input1")
! Touchstone port 2 = CST MWS port 2 ("Input2")
# GHz S MA R 50
4.6                    0.2827396       -165.3112        0.5822005        68.14427        0.5822004        68.14429        0.2827399       -165.3114
4.6014                   0.28799       -167.0491        0.5878072        67.58658        0.5878072        67.58661        0.2879902       -167.0493
4.6028                 0.2927933       -168.6974        0.5934901        66.95619        0.5934902        66.95624        0.2927934       -168.6975
4.6042                 0.2972039       -170.2496        0.5991345         66.2563        0.5991346        66.25633        0.2972038       -170.2498
4.6056                 0.3012867        -171.702        0.6046352        65.49187        0.6046353        65.49192        0.3012867       -171.7022
4.607                  0.3051157        -173.053        0.6099002        64.66931        0.6099005        64.66933        0.3051157       -173.0531
4.6084                 0.3087701       -174.3034        0.6148537        63.79597        0.6148542          63.796        0.3087701       -174.3035
4.6098                 0.3123315       -175.4571        0.6194375        62.87981         0.619438        62.87984        0.3123316       -175.4572
4.6112                 0.3158799       -176.5205        0.6236113        61.92897        0.6236118        61.92899        0.3158801       -176.5205
4.6126                 0.3194902       -177.5022        0.6273536        60.95143        0.6273542        60.95145        0.3194906       -177.5023
4.614                  0.3232285       -178.4133        0.6306602        59.95474        0.6306608        59.95474        0.3232289       -178.4134
4.6154                 0.3271489       -179.2663        0.6335426        58.94568        0.6335432        58.94569        0.3271494       -179.2663
4.6168                 0.3312915        179.9256         0.636026        57.93016        0.6360266        57.93014         0.331292        179.9255
4.6182                 0.3356806        179.1485        0.6381461        56.91294        0.6381467        56.91292        0.3356813        179.1484
4.6196                 0.3403249        178.3895        0.6399466        55.89761         0.639947        55.89758        0.3403255        178.3894
4.621                  0.3452172        177.6367         0.641475        54.88653        0.6414754        54.88649        0.3452178        177.6366
4.6224                 0.3503373        176.8798        0.6427799        53.88085        0.6427801        53.88082        0.3503378        176.8797
4.6238                 0.3556538        176.1108        0.6439074         52.8806        0.6439076        52.88056        0.3556542        176.1107
4.6252                 0.3611271        175.3239        0.6448987         51.8848        0.6448988        51.88476        0.3611274        175.3238
4.6266                  0.366713        174.5155        0.6457873        50.89169        0.6457873        50.89166        0.3667133        174.5154
4.628                  0.3723661        173.6842        0.6465975        49.89894        0.6465975        49.89891        0.3723663        173.6841
4.6294                 0.3780426        172.8305        0.6473435         48.9039        0.6473434        48.90387        0.3780426        172.8303
4.6308                 0.3837027        171.9562        0.6480294        47.90384        0.6480293        47.90383        0.3837027         171.956
4.6322                 0.3893136        171.0642        0.6486492        46.89623        0.6486491        46.89621        0.3893135        171.0641
4.6336                 0.3948497        170.1583        0.6491887        45.87885        0.6491886        45.87885        0.3948496        170.1582
4.635                  0.4002943        169.2423        0.6496267        44.85009        0.6496266         44.8501        0.4002941        169.2422
4.6364                 0.4056387        168.3197        0.6499376        43.80895        0.6499375        43.80896        0.4056385        168.3197
4.6378                 0.4108823        167.3941        0.6500931        42.75517         0.650093        42.75517        0.4108822         167.394
4.6392                  0.416031        166.4678        0.6500653        41.68916        0.6500654        41.68918        0.4160309        166.4678
4.6406                 0.4210955        165.5427        0.6498284        40.61205        0.6498286        40.61206        0.4210956        165.5427
4.642                  0.4260899        164.6196        0.6493607         39.5255        0.6493609        39.52551          0.42609        164.6196
4.6434                 0.4310288        163.6984        0.6486462        38.43163        0.6486464        38.43163        0.4310291        163.6985
4.6448                  0.435926        162.7783        0.6476756        37.33282        0.6476758        37.33282        0.4359265        162.7784
4.6462                 0.4407923        161.8577        0.6464465        36.23163        0.6464468        36.23162        0.4407928        161.8577
4.6476                 0.4456339        160.9344         0.644964        35.13053        0.6449641        35.13052        0.4456345        160.9344
4.649                  0.4504516        160.0061         0.643239        34.03184        0.6432393        34.03182        0.4504523        160.0061
4.6504                   0.45524        159.0704        0.6412886        32.93751        0.6412887         32.9375        0.4552408        159.0704
4.6518                 0.4599876        158.1252        0.6391333        31.84912        0.6391334         31.8491        0.4599883        158.1251
4.6532                 0.4646771        157.1686        0.6367965         30.7677        0.6367966        30.76768        0.4646778        157.1686
4.6546                 0.4692867        156.1996        0.6343022        29.69378        0.6343021        29.69376        0.4692875        156.1995
4.656                  0.4737913        155.2175        0.6316733        28.62736        0.6316733        28.62734         0.473792        155.2175
4.6574                 0.4781642        154.2227        0.6289304        27.56798        0.6289303        27.56797        0.4781648        154.2226
4.6588                 0.4823783        153.2159        0.6260903        26.51479        0.6260901        26.51478        0.4823789        153.2159
4.6602                 0.4864087         152.199        0.6231649        25.46667        0.6231647        25.46667        0.4864092        152.1989
4.6616                 0.4902337        151.1739        0.6201613        24.42237         0.620161        24.42238        0.4902341        151.1738
4.663                  0.4938357        150.1433         0.617081        23.38062        0.6170809        23.38064        0.4938361        150.1433
4.6644                 0.4972032        149.1101        0.6139215        22.34031        0.6139214        22.34033        0.4972035        149.1101
4.6658                 0.5003301        148.0772        0.6106755        21.30058        0.6106755         21.3006        0.5003305        148.0771
4.6672                 0.5032169        147.0473        0.6073335        20.26091        0.6073335        20.26094        0.5032173        147.0473
4.6686                 0.5058696        146.0231        0.6038842        19.22125        0.6038843        19.22127          0.50587        146.0231
4.67                   0.5082993        145.0069        0.6003166        18.18194        0.6003167        18.18197        0.5082998        145.0068
4.6714                 0.5105211        144.0001        0.5966208        17.14383         0.596621        17.14386        0.5105216        144.0001
4.6728                 0.5125528        143.0041        0.5927898        16.10814          0.59279        16.10816        0.5125532        143.0041
4.6742                  0.514413        142.0194        0.5888203         15.0764        0.5888207        15.07642        0.5144136        142.0193
4.6756                 0.5161208        141.0458        0.5847138        14.05039         0.584714        14.05041        0.5161215        141.0458
4.677                   0.517693        140.0829        0.5804761        13.03198        0.5804764        13.03199        0.5176937        140.0829
4.6784                 0.5191438        139.1296        0.5761185        12.02299        0.5761188        12.02299        0.5191446        139.1296
4.6798                 0.5204834        138.1847        0.5716564        11.02508        0.5716566        11.02508        0.5204842        138.1847
4.6812                 0.5217178        137.2467         0.567109        10.03963        0.5671092        10.03962        0.5217186        137.2467
4.6826                 0.5228482        136.3142        0.5624982        9.067614        0.5624983        9.067607        0.5228491        136.3142
4.684                  0.5238719        135.3858        0.5578471        8.109548        0.5578472        8.109539        0.5238725        135.3858
4.6854                 0.5247818        134.4606        0.5531791        7.165426        0.5531791        7.165419        0.5247824        134.4605
4.6868                 0.5255686        133.5377         0.548516         6.23474        0.5485159        6.234734        0.5255692        133.5376
4.6882                 0.5262212        132.6169        0.5438769        5.316497        0.5438769        5.316495        0.5262216        132.6168
4.6896                 0.5267279        131.6985        0.5392775        4.409303        0.5392774        4.409306        0.5267283        131.6984
4.691                  0.5270781         130.783        0.5347287        3.511468        0.5347286        3.511477        0.5270784         130.783
4.6924                 0.5272633        129.8716        0.5302369        2.621131        0.5302368        2.621147        0.5272636        129.8716
4.6938                 0.5272781        128.9656        0.5258034        1.736404        0.5258033        1.736426        0.5272783        128.9655
4.6952                 0.5271207        128.0665         0.521425       0.8555139         0.521425       0.8555405         0.527121        128.0665
4.6966                 0.5267942         127.176        0.5170949     -0.02306689        0.5170948     -0.02303619        0.5267944         127.176
4.698                  0.5263055        126.2958        0.5128034      -0.9005107        0.5128035       -0.900477        0.5263056        126.2958
4.6994                 0.5256654        125.4272        0.5085393       -1.777559        0.5085395       -1.777524        0.5256656        125.4272
4.7008                 0.5248886        124.5713        0.5042912       -2.654482        0.5042915       -2.654449        0.5248888        124.5713
4.7022                 0.5239918         123.729        0.5000485       -3.531089        0.5000488       -3.531057        0.5239922         123.729
4.7036                 0.5229937        122.9004        0.4958026       -4.406774         0.495803       -4.406746        0.5229941        122.9004
4.705                  0.5219121        122.0855        0.4915484       -5.280533        0.4915488       -5.280533        0.5219126        122.0855
4.7064                 0.5207646        121.2834         0.487284       -6.151224        0.4872844       -6.151224        0.5207651        121.2834
4.7078                 0.5195657        120.4933        0.4830117       -7.017534        0.4830121       -7.017534        0.5195662        120.4933
4.7092                 0.5183271        119.7135        0.4787378       -7.878184        0.4787382       -7.878185        0.5183276        119.7135
4.7106                 0.5170561        118.9425        0.4744722       -8.732164        0.4744726       -8.732169        0.5170566        118.9425
4.712                  0.5157559        118.1786        0.4702274       -9.578651        0.4702278       -9.578662        0.5157564        118.1785
4.7134                 0.5144252        117.4199        0.4660179       -10.41731        0.4660182       -10.41733        0.5144257        117.4199
4.7148                 0.5130587         116.665        0.4618591       -11.24828        0.4618594        -11.2483        0.5130593         116.665
4.7162                 0.5116476        115.9127        0.4577657       -12.07221        0.4577659       -12.07223        0.5116481        115.9127
4.7176                 0.5101809         115.162        0.4537509       -12.89025        0.4537512       -12.89027        0.5101813         115.162
4.719                  0.5086461        114.4125        0.4498256       -13.70402        0.4498258       -13.70404        0.5086465        114.4125
4.7204                 0.5070308        113.6643        0.4459969        -14.5155         0.445997       -14.51552        0.5070311        113.6643
4.7218                 0.5053236        112.9179        0.4422679       -15.32688         0.442268        -15.3269        0.5053238        112.9178
4.7232                 0.5035154         112.174        0.4386377       -16.14047        0.4386378       -16.14048        0.5035156         112.174
4.7246                    0.5016        111.4339        0.4351015       -16.95848        0.4351016        -16.9585        0.5016002        111.4339
4.726                  0.4995749        110.6989        0.4316509       -17.78295        0.4316511       -17.78296        0.4995751        110.6989
4.7274                 0.4974414        109.9704        0.4282749       -18.61553         0.428275       -18.61554        0.4974416        109.9705
4.7288                 0.4952044        109.2498        0.4249605       -19.45745        0.4249607       -19.45746        0.4952046        109.2499
4.7302                 0.4928723        108.5383        0.4216946       -20.30944        0.4216948       -20.30945        0.4928726        108.5383
4.7316                 0.4904559        107.8366        0.4184644        -21.1717        0.4184645       -21.17171        0.4904562        107.8366
4.733                  0.4879677        107.1452        0.4152588       -22.04397         0.415259       -22.04399         0.487968        107.1452
4.7344                 0.4854203        106.4642        0.4120694       -22.92558        0.4120696        -22.9256        0.4854208        106.4642
4.7358                 0.4828261        105.7932        0.4088911       -23.81558        0.4088913        -23.8156        0.4828266        105.7932
4.7372                 0.4801952        105.1313        0.4057226       -24.71283        0.4057228       -24.71286        0.4801957        105.1313
4.7386                 0.4775349        104.4773        0.4025663       -25.61625        0.4025664       -25.61628        0.4775355        104.4773
4.74                   0.4748489        103.8299         0.399428       -26.52488        0.3994281       -26.52491        0.4748495        103.8299
4.7414                  0.472137        103.1876        0.3963168       -27.43811        0.3963169       -27.43814        0.4721376        103.1875
4.7428                 0.4693946        102.5487        0.3932438       -28.35574        0.3932438       -28.35578        0.4693952        102.5487
4.7442                 0.4666134         101.912        0.3902212       -29.27814        0.3902212       -29.27817         0.466614         101.912
4.7456                 0.4637817        101.2766        0.3872615       -30.20624        0.3872615       -30.20626        0.4637822        101.2766
4.747                  0.4608853        100.6418         0.384376       -31.14157        0.3843759       -31.14159        0.4608858        100.6418
4.7484                 0.4579088        100.0075        0.3815741       -32.08621         0.381574       -32.08624        0.4579093        100.0075
4.7498                 0.4548367        99.37433        0.3788621       -33.04274         0.378862       -33.04274        0.4548371         99.3743
4.7512                 0.4516545        98.74323        0.3762431       -34.01399         0.376243         -34.014        0.4516548         98.7432
4.7526                 0.4483496        98.11572        0.3737162       -35.00306        0.3737161       -35.00306        0.4483499        98.11572
4.754                  0.4449128        97.49385        0.3712768       -36.01302        0.3712767       -36.01302        0.4449131        97.49384
4.7554                 0.4413385        96.87988        0.3689169        -37.0468        0.3689168       -37.04679        0.4413388        96.87988
4.7568                 0.4376252        96.27641        0.3666257       -38.10705        0.3666256       -38.10703        0.4376254        96.27638
4.7582                 0.4337752        95.68595        0.3643904       -39.19601        0.3643905       -39.19599        0.4337754        95.68595
4.7596                 0.4297946        95.11109        0.3621976       -40.31544        0.3621977       -40.31544        0.4297948        95.11109
4.761                  0.4256924        94.55415        0.3600336       -41.46668        0.3600338       -41.46667        0.4256926        94.55415
4.7624                 0.4214794        94.01719        0.3578862       -42.65055        0.3578864       -42.65054        0.4214797        94.01719
4.7638                 0.4171678        93.50198        0.3557449       -43.86754        0.3557451       -43.86754        0.4171682        93.50201
4.7652                 0.4127693        93.00998        0.3536021       -45.11789        0.3536023        -45.1179        0.4127697           93.01
4.7666                 0.4082945        92.54232        0.3514531       -46.40177        0.3514533       -46.40179        0.4082949        92.54235
4.768                  0.4037518        92.10006        0.3492963       -47.71942        0.3492965       -47.71944        0.4037522        92.10006
4.7694                 0.3991471        91.68412        0.3471328       -49.07137         0.347133        -49.0714        0.3991475        91.68411
4.7708                 0.3944834        91.29569        0.3449663       -50.45856        0.3449665        -50.4586        0.3944838        91.29569
4.7722                 0.3897616        90.93632        0.3428014       -51.88254        0.3428016       -51.88258        0.3897619        90.93629
4.7736                 0.3849805        90.60817        0.3406434        -53.3455        0.3406435       -53.34555        0.3849808        90.60814
4.775                  0.3801387        90.31417        0.3384965       -54.85038        0.3384965       -54.85042         0.380139        90.31417
4.7764                 0.3752363        90.05831        0.3363628       -56.40083        0.3363628       -56.40088        0.3752366        90.05828
4.7778                 0.3702767         89.8456        0.3342413       -58.00115        0.3342413       -58.00121         0.370277        89.84557
4.7792                 0.3652688        89.68214        0.3321268       -59.65618        0.3321267       -59.65623         0.365269        89.68211
4.7806                 0.3602293        89.57504         0.330009       -61.37108        0.3300088        -61.3711        0.3602294        89.57504
4.782                  0.3551848        89.53226        0.3278723       -63.15116        0.3278721       -63.15118        0.3551849         89.5322
4.7834                 0.3501738        89.56201        0.3256959       -65.00162        0.3256958       -65.00165        0.3501739        89.56201
4.7848                 0.3452476        89.67259        0.3234539       -66.92736        0.3234538       -66.92736        0.3452476        89.67259
4.7862                 0.3404709        89.87146         0.321116       -68.93264        0.3211159       -68.93264        0.3404708        89.87146
4.7876                 0.3359211        90.16461        0.3186488       -71.02104        0.3186487       -71.02104        0.3359211        90.16462
4.789                  0.3316875        90.55553        0.3160168       -73.19513        0.3160166       -73.19513        0.3316874        90.55556
4.7904                 0.3278674        91.04431        0.3131837       -75.45655        0.3131836       -75.45654        0.3278675        91.04433
4.7918                 0.3245631        91.62684        0.3101145       -77.80575        0.3101144       -77.80575        0.3245632        91.62689
4.7932                 0.3218761        92.29408        0.3067765       -80.24214        0.3067765       -80.24214        0.3218761        92.29414
4.7946                 0.3199011        93.03167        0.3031407       -82.76406        0.3031407       -82.76403        0.3199013        93.03175
4.796                  0.3187205        93.82016        0.2991832       -85.36881        0.2991833       -85.36879        0.3187206        93.82018
4.7974                 0.3183967        94.63543        0.2948864        -88.0528        0.2948864        -88.0528        0.3183968        94.63545
4.7988                 0.3189682        95.45017        0.2902391       -90.81168        0.2902392       -90.81168        0.3189684         95.4502
4.8002                 0.3204454        96.23552        0.2852379       -93.64042        0.2852379       -93.64042        0.3204456        96.23554
4.8016                 0.3228086        96.96259        0.2798867       -96.53342        0.2798868       -96.53342        0.3228088        96.96262
4.803                  0.3260089        97.60484         0.274197       -99.48471         0.274197       -99.48472        0.3260092        97.60486
4.8044                  0.329971        98.13924        0.2681877       -102.4881        0.2681877       -102.4881        0.3299712        98.13927
4.8058                  0.334597        98.54767        0.2618843        -105.537        0.2618843        -105.537        0.3345972        98.54769
4.8072                 0.3397723        98.81736        0.2553188       -108.6252        0.2553188       -108.6252        0.3397724        98.81739
4.8086                 0.3453713        98.94106        0.2485284       -111.7461        0.2485284       -111.7462        0.3453714        98.94109
4.81                   0.3512637        98.91665        0.2415546       -114.8937        0.2415545       -114.8937        0.3512638        98.91665
4.8114                 0.3573194        98.74645        0.2344424        -118.062        0.2344424        -118.062        0.3573195        98.74647
4.8128                 0.3634134        98.43639        0.2272396       -121.2454        0.2272395       -121.2455        0.3634135        98.43645
4.8142                 0.3694292        97.99534         0.219995        -124.439        0.2199948        -124.439        0.3694293        97.99537
4.8156                  0.375262          97.434        0.2127577       -127.6381        0.2127575       -127.6381        0.3752621        97.43405
4.817                    0.38082        96.76439        0.2055763        -130.839        0.2055762        -130.839        0.3808201        96.76445
4.8184                  0.386026        95.99913         0.198498       -134.0385        0.1984978       -134.0385        0.3860261        95.99918
4.8198                 0.3908173        95.15097        0.1915671       -137.2343         0.191567       -137.2343        0.3908174        95.15101
4.8212                 0.3951459        94.23236         0.184825       -140.4249        0.1848249       -140.4248        0.3951461        94.23241
4.8226                 0.3989778        93.25525        0.1783092       -143.6096        0.1783091       -143.6096         0.398978         93.2553
4.824                  0.4022918        92.23074        0.1720529       -146.7887        0.1720528       -146.7886         0.402292         92.2308
4.8254                 0.4050785        91.16906        0.1660846        -149.963        0.1660845        -149.963        0.4050788         91.1691
4.8268                 0.4073387        90.07938         0.160428       -153.1342        0.1604279       -153.1342        0.4073389         90.0794
4.8282                 0.4090816        88.96981        0.1551017       -156.3044        0.1551017       -156.3044        0.4090818        88.96984
4.8296                 0.4103233        87.84742        0.1501199        -159.476        0.1501199        -159.476        0.4103236        87.84744
4.831                  0.4110855        86.71817        0.1454917       -162.6516        0.1454917       -162.6515        0.4110858         86.7182
4.8324                 0.4113932        85.58708        0.1412224       -165.8334        0.1412224       -165.8333        0.4113934         85.5871
4.8338                 0.4112736         84.4582        0.1373133       -169.0234        0.1373133       -169.0234        0.4112737        84.45821
4.8352                 0.4107549        83.33473        0.1337623       -172.2229        0.1337623       -172.2228        0.4107551        83.33476
4.8366                 0.4098652        82.21921        0.1305647       -175.4321        0.1305647       -175.4321        0.4098653        82.21923
4.838                  0.4086312        81.11349        0.1277132       -178.6506        0.1277132       -178.6505        0.4086313        81.11353
4.8394                 0.4070784        80.01896         0.125199        178.1236        0.1251991        178.1236        0.4070785          80.019
4.8408                 0.4052299        78.93661        0.1230119        174.8933        0.1230119        174.8933          0.40523        78.93664
4.8422                 0.4031068        77.86717        0.1211404        171.6623        0.1211404        171.6623        0.4031068        77.86722
4.8436                 0.4007278        76.81119        0.1195729        168.4356        0.1195729        168.4356        0.4007279        76.81124
4.845                    0.39811        75.76916        0.1182969        165.2187        0.1182969        165.2187        0.3981101         75.7692
4.8464                 0.3952685        74.74147        0.1173001        162.0174           0.1173        162.0174        0.3952686        74.74153
4.8478                 0.3922173        73.72862        0.1165699         158.838        0.1165699         158.838        0.3922174        73.72868
4.8492                 0.3889692        72.73115        0.1160939        155.6865        0.1160938        155.6865        0.3889692         72.7312
4.8506                 0.3855366        71.74958        0.1158595        152.5684        0.1158594        152.5685        0.3855367        71.74964
4.852                  0.3819314        70.78461        0.1158545        149.4891        0.1158544        149.4891        0.3819316        70.78466
4.8534                 0.3781656        69.83687        0.1160665        146.4528        0.1160663        146.4529        0.3781657        69.83692
4.8548                  0.374251        68.90706        0.1164829        143.4632        0.1164828        143.4633        0.3742512        68.90712
4.8562                 0.3701995        67.99591        0.1170914         140.523        0.1170913         140.523        0.3701996        67.99596
4.8576                 0.3660229        67.10402        0.1178793        137.6341        0.1178793        137.6341         0.366023        67.10407
4.859                   0.361733        66.23203        0.1188337        134.7975        0.1188337        134.7976        0.3617332        66.23206
4.8604                 0.3573412        65.38047        0.1199416        132.0139        0.1199416         132.014        0.3573414         65.3805
4.8618                 0.3528587        64.54981        0.1211896         129.283        0.1211896         129.283        0.3528587        64.54983
4.8632                 0.3482955        63.74047        0.1225644        126.6042        0.1225644        126.6043        0.3482956        63.74051
4.8646                 0.3436616        62.95288        0.1240522        123.9769        0.1240522        123.9769        0.3436617         62.9529
4.866                  0.3389658         62.1874        0.1256396        121.3999        0.1256397        121.3999        0.3389658        62.18743
4.8674                 0.3342162        61.44447        0.1273132        118.8722        0.1273132        118.8722        0.3342162        61.44451
4.8688                 0.3294204        60.72459        0.1290598        116.3927        0.1290599        116.3927        0.3294203        60.72462
4.8702                 0.3245852        60.02835        0.1308668        113.9603        0.1308669        113.9604        0.3245852        60.02837
4.8716                 0.3197175        59.35646        0.1327221        111.5742        0.1327222        111.5743        0.3197174        59.35651