! TOUCHSTONE file generated by CST MICROWAVE STUDIO
! Date and time: Mon Dec  2 04:50:23 2024
! Project name: test_tuning.cst
! Parameters = {airCoaxOuterDiameter=3; chamferAngle=45; chamferWidth=24; connectorLength=10; drillingHoleDiameter=4.1; feedLength=60; flareDiameter=130; flareLength=70; gratingDistance=0; gratingGap=1.90274; outletLength=20; polarizerLength=134; probe1Diameter=1.3; probe1Distance=14; probe1Length=12; probe2Diameter=1.3; probe2Distance=0; probe2Length=12; probeLength=12; smaInnerDiameter=1.3; smaOuterDiameter=4.1; transitionCoefficient=1.33; waveguideFeedLength=30; waveguideSide=50; waveguideThickness=3; wireCount=25; wireDiameter=1.17699}
! Header version: 2024
! Port assignment regex: !\s*Touchstone port\s*([0-9]+)\s*=\s*(CST MWS port|CST DES external port|CST DES block port)\s*(.+)\s* \(\"(.*)\"\)(\s*mode\s*([0-9]+))?.*
! Touchstone port assignment:
! Touchstone port 1 = CST MWS port 1 ("Input1")
! Touchstone port 2 = CST MWS port 2 ("Input2")
# GHz S MA R 50
4.6                    0.2118673       -160.7405        0.5991502         64.2551        0.5991505        64.25506        0.2118676       -160.7407
4.6014                 0.2187268        -161.601        0.6005876        63.39352        0.6005879        63.39348        0.2187272       -161.6012
4.6028                 0.2255492       -162.4752        0.6019162        62.52857        0.6019165        62.52852        0.2255496       -162.4753
4.6042                 0.2323288       -163.3597        0.6031436        61.66097         0.603144        61.66093        0.2323292       -163.3598
4.6056                 0.2390613       -164.2516         0.604279        60.79127        0.6042792        60.79122        0.2390617       -164.2517
4.607                  0.2457436       -165.1484        0.6053313        59.91984        0.6053315        59.91981        0.2457441       -165.1485
4.6084                  0.252374       -166.0479        0.6063108         59.0469        0.6063109        59.04687        0.2523745        -166.048
4.6098                 0.2589517       -166.9481        0.6072273        58.17248        0.6072275        58.17243        0.2589522       -166.9482
4.6112                 0.2654772       -167.8475        0.6080909         57.2964        0.6080911        57.29637        0.2654777       -167.8476
4.6126                 0.2719517       -168.7448        0.6089113        56.41836        0.6089114        56.41833        0.2719523       -168.7449
4.614                  0.2783775       -169.6391        0.6096973        55.53787        0.6096974        55.53783        0.2783781       -169.6392
4.6154                 0.2847573       -170.5295        0.6104572        54.65426        0.6104571        54.65422        0.2847578       -170.5296
4.6168                 0.2910942       -171.4156        0.6111976        53.76676        0.6111975        53.76673        0.2910948       -171.4157
4.6182                 0.2973923       -172.2971        0.6119242        52.87446        0.6119241        52.87442        0.2973929       -172.2972
4.6196                 0.3036551       -173.1741         0.612641        51.97633         0.612641         51.9763        0.3036558       -173.1742
4.621                   0.309887       -174.0465        0.6133504         51.0713        0.6133503        51.07127        0.3098876       -174.0466
4.6224                 0.3160916       -174.9148        0.6140529        50.15817        0.6140528        50.15816        0.3160922       -174.9149
4.6238                 0.3222727       -175.7794        0.6147471        49.23579        0.6147469        49.23577        0.3222734       -175.7795
4.6252                 0.3284337       -176.6408        0.6154295        48.30293        0.6154293        48.30291        0.3284344       -176.6409
4.6266                 0.3345775       -177.4998        0.6160948         47.3584        0.6160946        47.35839        0.3345782       -177.4998
4.628                  0.3407063       -178.3569        0.6167356        46.40105        0.6167355        46.40103         0.340707        -178.357
4.6294                 0.3468218       -179.2131        0.6173431        45.42979        0.6173429        45.42978        0.3468225       -179.2132
4.6308                 0.3529248        179.9308         0.617906        44.44361        0.6179059         44.4436        0.3529254        179.9307
4.6322                 0.3590152        179.0741         0.618412        43.44161        0.6184117        43.44161        0.3590159         179.074
4.6336                 0.3650924         178.216        0.6188467        42.42302        0.6188466        42.42302         0.365093        178.2159
4.635                  0.3711544        177.3556         0.619195        41.38719        0.6191948        41.38719        0.3711551        177.3555
4.6364                 0.3771989        176.4924        0.6194405         40.3336        0.6194404         40.3336        0.3771995        176.4923
4.6378                 0.3832224        175.6257        0.6195659        39.26194        0.6195657        39.26196         0.383223        175.6256
4.6392                 0.3892206        174.7549        0.6195532        38.17204        0.6195531        38.17204        0.3892212        174.7548
4.6406                 0.3951885        173.8795        0.6193843        37.06388        0.6193842        37.06389        0.3951891        173.8795
4.642                  0.4011206        172.9994        0.6190408        35.93763        0.6190407        35.93764        0.4011211        172.9993
4.6434                 0.4070105        172.1141        0.6185046        34.79364        0.6185044        34.79365        0.4070111         172.114
4.6448                 0.4128516        171.2236        0.6177575        33.63242        0.6177575        33.63243        0.4128522        171.2235
4.6462                 0.4186369        170.3278        0.6167827        32.45463        0.6167826        32.45464        0.4186374        170.3277
4.6476                 0.4243589        169.4269        0.6155635        31.26111        0.6155635        31.26113        0.4243594        169.4268
4.649                  0.4300102         168.521        0.6140848        30.05286        0.6140847        30.05288        0.4300107        168.5209
4.6504                 0.4355835        167.6104        0.6123323        28.83099        0.6123323        28.83101         0.435584        167.6103
4.6518                 0.4410713        166.6955        0.6102934        27.59679        0.6102934         27.5968        0.4410718        166.6955
4.6532                 0.4464665        165.7768         0.607957        26.35164        0.6079571        26.35166        0.4464671        165.7768
4.6546                 0.4517625        164.8549        0.6053138        25.09708        0.6053139         25.0971         0.451763        164.8548
4.656                  0.4569529        163.9302        0.6023563        23.83475        0.6023564        23.83477        0.4569534        163.9302
4.6574                  0.462032        163.0036         0.599079        22.56637        0.5990791        22.56639        0.4620325        163.0036
4.6588                 0.4669948        162.0757        0.5954783        21.29378        0.5954785         21.2938        0.4669953        162.0757
4.6602                 0.4718369        161.1473        0.5915531         20.0189        0.5915532        20.01892        0.4718375        161.1473
4.6616                 0.4765549        160.2192         0.587304        18.74373        0.5873041        18.74374        0.4765554        160.2191
4.663                  0.4811462         159.292         0.582734        17.47033        0.5827342        17.47034        0.4811467         159.292
4.6644                 0.4856091        158.3667        0.5778485        16.20081        0.5778487        16.20082        0.4856096        158.3667
4.6658                 0.4899428         157.444        0.5726549        14.93736        0.5726551        14.93737        0.4899432         157.444
4.6672                 0.4941475        156.5246        0.5671628        13.68217        0.5671629        13.68218         0.494148        156.5245
4.6686                 0.4982245        155.6092        0.5613838        12.43749        0.5613841         12.4375         0.498225        155.6092
4.67                    0.502176        154.6985        0.5553321        11.20556        0.5553323        11.20557        0.5021765        154.6984
4.6714                 0.5060051        153.7931        0.5490232        9.988644        0.5490235        9.988648        0.5060056         153.793
4.6728                 0.5097157        152.8935        0.5424751        8.788976        0.5424753         8.78898        0.5097162        152.8934
4.6742                 0.5133128        152.0002        0.5357072        7.608779        0.5357074        7.608779        0.5133133        152.0001
4.6756                  0.516802        151.1135        0.5287406        6.450223        0.5287408        6.450222        0.5168025        151.1135
4.677                  0.5201895        150.2338        0.5215981        5.315419        0.5215983        5.315417        0.5201901        150.2337
4.6784                 0.5234823        149.3611        0.5143038        4.206395         0.514304        4.206391        0.5234829        149.3611
4.6798                 0.5266878        148.4957        0.5068827        3.125074        0.5068829        3.125068        0.5266883        148.4956
4.6812                 0.5298135        147.6374        0.4993609        2.073249        0.4993612        2.073242         0.529814        147.6373
4.6826                 0.5328675        146.7861        0.4917654        1.052558        0.4917656         1.05255         0.532868         146.786
4.684                  0.5358576        145.9415        0.4841232      0.06445845        0.4841234      0.06444888        0.5358582        145.9415
4.6854                 0.5387919        145.1033         0.476462      -0.8898059        0.4764622      -0.8898166        0.5387924        145.1033
4.6868                 0.5416779         144.271        0.4688091        -1.80923        0.4688092       -1.809241        0.5416784        144.2709
4.6882                 0.5445228         143.444        0.4611916       -2.693075        0.4611917       -2.693088        0.5445234         143.444
4.6896                 0.5473335        142.6216         0.453636         -3.5409         0.453636       -3.540914         0.547334        142.6216
4.691                  0.5501157        141.8031        0.4461675       -4.352588        0.4461677       -4.352601        0.5501162         141.803
4.6924                 0.5528748        140.9876        0.4388107       -5.128358        0.4388107       -5.128372        0.5528753        140.9875
4.6938                 0.5556149        140.1741         0.431588       -5.868798         0.431588       -5.868812        0.5556152        140.1741
4.6952                 0.5583389        139.3618        0.4245203       -6.574864        0.4245203       -6.574878        0.5583393        139.3618
4.6966                  0.561049        138.5496        0.4176263       -7.247895        0.4176264       -7.247909        0.5610495        138.5496
4.698                  0.5637458        137.7366        0.4109225       -7.889605        0.4109225       -7.889618        0.5637462        137.7366
4.6994                 0.5664286        136.9216        0.4044225       -8.502058        0.4044225       -8.502086         0.566429        136.9216
4.7008                 0.5690954        136.1038        0.3981374       -9.087692        0.3981374       -9.087691        0.5690959        136.1037
4.7022                  0.571743         135.282        0.3920753       -9.649218        0.3920753       -9.649243        0.5717433         135.282
4.7036                 0.5743663        134.4554        0.3862413       -10.18964        0.3862413       -10.18967        0.5743667        134.4554
4.705                  0.5769597        133.6232        0.3806375       -10.71217        0.3806375        -10.7122        0.5769601        133.6232
4.7064                 0.5795158        132.7845         0.375263       -11.22017         0.375263        -11.2202        0.5795162        132.7845
4.7078                 0.5820263        131.9387         0.370114       -11.71711         0.370114       -11.71711        0.5820266        131.9387
4.7092                 0.5844817        131.0852        0.3651839        -12.2065        0.3651839        -12.2065        0.5844821        131.0851
4.7106                 0.5868718        130.2234        0.3604635       -12.69172        0.3604635       -12.69172        0.5868721        130.2234
4.712                  0.5891855        129.3532        0.3559413       -13.17618        0.3559413       -13.17618        0.5891858        129.3531
4.7134                 0.5914113        128.4741        0.3516039       -13.66301        0.3516039       -13.66301        0.5914115        128.4741
4.7148                  0.593537        127.5863        0.3474359       -14.15514        0.3474359       -14.15514        0.5935372        127.5863
4.7162                 0.5955502        126.6897        0.3434208        -14.6552        0.3434207        -14.6552        0.5955505        126.6897
4.7176                 0.5974387        125.7845        0.3395409       -15.16549        0.3395408       -15.16549         0.597439        125.7844
4.719                  0.5991903        124.8709         0.335778       -15.68794        0.3357779       -15.68793        0.5991905        124.8709
4.7204                 0.6007929        123.9496        0.3321136       -16.22409        0.3321136       -16.22408        0.6007932        123.9496
4.7218                 0.6022352         123.021        0.3285295       -16.77507        0.3285295       -16.77506        0.6022354         123.021
4.7232                 0.6035065        122.0859        0.3250075       -17.34163        0.3250076       -17.34162        0.6035067        122.0859
4.7246                 0.6045967         121.145        0.3215307       -17.92408        0.3215306       -17.92407        0.6045969         121.145
4.726                  0.6054972        120.1992        0.3180826       -18.52237        0.3180827       -18.52235        0.6054974        120.1992
4.7274                    0.6062        119.2496        0.3146486       -19.13606        0.3146487       -19.13605        0.6062002        119.2496
4.7288                 0.6066987        118.2972        0.3112153       -19.76439        0.3112154       -19.76438         0.606699        118.2972
4.7302                 0.6069884        117.3432        0.3077708       -20.40628        0.3077709       -20.40627        0.6069886        117.3432
4.7316                 0.6070653        116.3887        0.3043052       -21.06037        0.3043053       -21.06036        0.6070656        116.3887
4.733                  0.6069277        115.4351        0.3008104       -21.72508        0.3008105       -21.72507         0.606928        115.4351
4.7344                 0.6065751        114.4835        0.2972803       -22.39861        0.2972804        -22.3986        0.6065753        114.4836
4.7358                 0.6060089        113.5354        0.2937106       -23.07903        0.2937107       -23.07902        0.6060092        113.5355
4.7372                 0.6052321         112.592        0.2900991       -23.76428        0.2900992       -23.76427        0.6052323         112.592
4.7386                 0.6042496        111.6546        0.2864453       -24.45224        0.2864454       -24.45223        0.6042499        111.6546
4.74                    0.603068        110.7245        0.2827508       -25.14078        0.2827509       -25.14077        0.6030683        110.7245
4.7414                 0.6016954        109.8029        0.2790185       -25.82777        0.2790186       -25.82776        0.6016956        109.8029
4.7428                 0.6001415        108.8909        0.2752532       -26.51116        0.2752533       -26.51115        0.6001418        108.8909
4.7442                 0.5984176        107.9896         0.271461         -27.189         0.271461         -27.189        0.5984179        107.9896
4.7456                 0.5965363        107.1001        0.2676491       -27.85952        0.2676492       -27.85951        0.5965366        107.1001
4.747                  0.5945116        106.2233        0.2638259       -28.52112        0.2638259       -28.52112        0.5945119        106.2233
4.7484                 0.5923585        105.3599        0.2600005       -29.17248        0.2600006       -29.17248        0.5923588        105.3599
4.7498                  0.590093        104.5105        0.2561827       -29.81251        0.2561828       -29.81251        0.5900933        104.5105
4.7512                 0.5877317        103.6756        0.2523825       -30.44048        0.2523826       -30.44048         0.587732        103.6756
4.7526                 0.5852919        102.8555        0.2486101         -31.056        0.2486102       -31.05601        0.5852921        102.8555
4.754                  0.5827908        102.0504        0.2448753       -31.65907        0.2448753       -31.65907        0.5827911        102.0504
4.7554                 0.5802463        101.2602        0.2411877       -32.25006        0.2411877       -32.25007        0.5802466        101.2602
4.7568                 0.5776755        100.4846        0.2375561       -32.82978        0.2375562       -32.82979        0.5776758        100.4847
4.7582                 0.5750953        99.72328        0.2339887       -33.39945        0.2339888       -33.39945        0.5750956        99.72331
4.7596                  0.572522        98.97548        0.2304921       -33.96069        0.2304921       -33.96071        0.5725224        98.97551
4.761                  0.5699707        98.24043        0.2270719       -34.51555        0.2270719       -34.51556        0.5699709        98.24043
4.7624                 0.5674552        97.51701        0.2237321        -35.0664        0.2237322       -35.06642        0.5674555        97.51701
4.7638                 0.5649883        96.80408        0.2204753       -35.61598        0.2204753       -35.61599        0.5649886        96.80408
4.7652                 0.5625809        96.10025        0.2173021       -36.16728        0.2173021       -36.16729        0.5625812        96.10025
4.7666                 0.5602419        95.40395        0.2142115       -36.72352        0.2142116       -36.72353        0.5602421        95.40395
4.768                  0.5579786        94.71357        0.2112009       -37.28808        0.2112009       -37.28809        0.5579788        94.71359
4.7694                 0.5557958        94.02735        0.2082657       -37.86443        0.2082657       -37.86444         0.555796        94.02738
4.7708                 0.5536964        93.34347        0.2053999       -38.45601        0.2053999       -38.45602        0.5536967        93.34347
4.7722                 0.5516811        92.66004        0.2025959       -39.06625        0.2025959       -39.06626        0.5516814        92.66004
4.7736                 0.5497482        91.97521        0.1998446        -39.6984        0.1998446       -39.69841        0.5497484        91.97521
4.775                  0.5478939        91.28704        0.1971361       -40.35552        0.1971361       -40.35553        0.5478941         91.2871
4.7764                 0.5461124        90.59385        0.1944591       -41.04041        0.1944591       -41.04042        0.5461126        90.59385
4.7778                 0.5443957        89.89381         0.191802       -41.75554         0.191802       -41.75555        0.5443958        89.89384
4.7792                  0.542734        89.18534        0.1891524       -42.50302        0.1891524       -42.50303        0.5427342        89.18537
4.7806                 0.5411161        88.46694        0.1864979       -43.28458        0.1864979       -43.28458        0.5411162        88.46694
4.782                   0.539529        87.73726         0.183826       -44.10153         0.183826       -44.10153        0.5395291        87.73729
4.7834                 0.5379587        86.99515        0.1811244       -44.95474        0.1811243       -44.95474        0.5379588        86.99518
4.7848                 0.5363902         86.2397        0.1783813       -45.84466        0.1783813       -45.84467        0.5363903        86.23973
4.7862                 0.5348081        85.47008        0.1755858       -46.77132        0.1755857       -46.77133        0.5348081        85.47011
4.7876                 0.5331959         84.6858        0.1727275       -47.73433        0.1727275       -47.73433         0.533196         84.6858
4.789                  0.5315376        83.88643        0.1697974       -48.73289        0.1697973       -48.73289        0.5315378        83.88646
4.7904                 0.5298172        83.07197        0.1667873       -49.76582        0.1667873       -49.76582        0.5298172          83.072
4.7918                 0.5280187        82.24239        0.1636907       -50.83163        0.1636907       -50.83163        0.5280188        82.24242
4.7932                 0.5261271        81.39805        0.1605022       -51.92842        0.1605022       -51.92843        0.5261272        81.39808
4.7946                 0.5241285        80.53946        0.1572179       -53.05406        0.1572179       -53.05406        0.5241286        80.53948
4.796                  0.5220095        79.66721        0.1538356        -54.2061        0.1538356        -54.2061        0.5220095        79.66724
4.7974                 0.5197584        78.78218        0.1503544       -55.38183        0.1503544       -55.38183        0.5197584        78.78221
4.7988                 0.5173648        77.88536         0.146775       -56.57834         0.146775       -56.57834        0.5173648        77.88539
4.8002                   0.51482        76.97788        0.1430997       -57.79251        0.1430996       -57.79251          0.51482        76.97791
4.8016                 0.5121171        76.06097        0.1393321       -59.02104        0.1393321       -59.02104        0.5121171          76.061
4.803                  0.5092509        75.13599        0.1354775       -60.26049        0.1354775       -60.26049        0.5092509        75.13603
4.8044                 0.5062183        74.20436        0.1315424        -61.5073        0.1315423        -61.5073        0.5062182         74.2044
4.8058                  0.503018        73.26758        0.1275344       -62.75781        0.1275344       -62.75781         0.503018         73.2676
4.8072                 0.4996507        72.32712        0.1234627       -64.00835        0.1234627       -64.00835        0.4996508        72.32715
4.8086                 0.4961194        71.38454        0.1193372       -65.25522        0.1193372       -65.25522        0.4961194        71.38457
4.81                   0.4924286        70.44133        0.1151689       -66.49472        0.1151688       -66.49472        0.4924286        70.44137
4.8114                 0.4885848        69.49898        0.1109694       -67.72336        0.1109694       -67.72336        0.4885847        69.49901
4.8128                 0.4845963        68.55889        0.1067512       -68.93776        0.1067512       -68.93776        0.4845963        68.55892
4.8142                 0.4804731        67.62238        0.1025271        -70.1348         0.102527        -70.1348        0.4804731        67.62241
4.8156                 0.4762268        66.69064       0.09831013       -71.31181       0.09831008        -71.3118        0.4762268        66.69066
4.817                  0.4718699        65.76474        0.0941135       -72.46657       0.09411345       -72.46657        0.4718699        65.76478
4.8184                 0.4674164        64.84558       0.08995023       -73.59763       0.08995017       -73.59763        0.4674165        64.84561
4.8198                 0.4628812        63.93383         0.085833       -74.70432       0.08583294        -74.7043        0.4628812        63.93388
4.8212                 0.4582795           63.03       0.08177391       -75.78714       0.08177384       -75.78712        0.4582794        63.03005
4.8226                  0.453627        62.13432       0.07778426       -76.84795       0.07778419       -76.84794         0.453627        62.13436
4.824                  0.4489399        61.24675       0.07387427       -77.89035        0.0738742       -77.89034        0.4489398        61.24678
4.8254                 0.4442334        60.36698       0.07005293       -78.91998       0.07005285       -78.91996        0.4442334        60.36702
4.8268                 0.4395231         59.4944        0.0663277       -79.94495       0.06632762       -79.94493        0.4395229        59.49443
4.8282                  0.434823        58.62809       0.06270441       -80.97634       0.06270433       -80.97631        0.4348229        58.62813
4.8296                 0.4301465        57.76681       0.05918704       -82.02876       0.05918696       -82.02873        0.4301464        57.76686
4.831                  0.4255054        56.90903        0.0557777        -83.1209       0.05577762       -83.12086        0.4255053        56.90908
4.8324                   0.42091        56.05287       0.05247658       -84.27637        0.0524765       -84.27631          0.42091        56.05291
4.8338                 0.4163686        55.19618       0.04928211       -85.52447       0.04928202       -85.52441        0.4163685        55.19622
4.8352                 0.4118873        54.33651       0.04619117       -86.90136       0.04619107       -86.90129        0.4118872        54.33655
4.8366                 0.4074701        53.47116       0.04319955       -88.45149       0.04319946        -88.4514        0.4074699         53.4712
4.838                  0.4031182        52.59722       0.04030266       -90.22948       0.04030257       -90.22938         0.403118        52.59727
4.8394                 0.3988307        51.71157       0.03749644       -92.30279       0.03749635       -92.30268        0.3988304        51.71163
4.8408                 0.3946037        50.81096        0.0347788       -94.75527       0.03477871       -94.75514        0.3946035          50.811
4.8422                  0.390431          49.892       0.03215155       -97.69197       0.03215145       -97.69183        0.3904308        49.89205
4.8436                 0.3863037        48.95127        0.0296231       -101.2452         0.029623        -101.245        0.3863035        48.95133
4.845                  0.3822104        47.98534       0.02721229       -105.5809       0.02721218       -105.5807        0.3822102        47.98538
4.8464                 0.3781376        46.99077       0.02495356       -110.9029       0.02495345       -110.9028        0.3781373        46.99081
4.8478                 0.3740694         45.9642       0.02290367       -117.4465       0.02290355       -117.4463        0.3740691        45.96426
4.8492                 0.3699882        44.90242       0.02114873       -125.4446        0.0211486       -125.4444        0.3699879        44.90247
4.8506                 0.3658747        43.80232       0.01980794       -135.0403        0.0198078       -135.0401        0.3658745        43.80237
4.852                  0.3617084        42.66095       0.01902523        -146.134        0.0190251        -146.134        0.3617081          42.661
4.8534                 0.3574676        41.47557       0.01893955       -158.2385       0.01893942       -158.2385        0.3574674        41.47562
4.8548                 0.3531299        40.24364       0.01963867       -170.5206       0.01963853       -170.5207        0.3531297         40.2437
4.8562                 0.3486727        38.96281       0.02112723        177.8859       0.02112709        177.8858        0.3486724        38.96287
4.8576                 0.3440729        37.63095       0.02333637         167.539       0.02333624        167.5389        0.3440726        37.63101
4.859                  0.3393082        36.24611       0.02616211        158.6001       0.02616199           158.6        0.3393079        36.24616
4.8604                 0.3343565        34.80652       0.02950002        150.9624        0.0294999        150.9623        0.3343562        34.80658
4.8618                 0.3291967         33.3106       0.03326171        144.4106        0.0332616        144.4105        0.3291964        33.31066
4.8632                 0.3238088        31.75686       0.03737758        138.7192       0.03737746        138.7191        0.3238085        31.75692
4.8646                 0.3181742        30.14393       0.04179366        133.6929       0.04179355        133.6928        0.3181738        30.14399
4.866                  0.3122758         28.4705        0.0464675        129.1756       0.04646739        129.1755        0.3122755        28.47055
4.8674                 0.3060986        26.73524       0.05136438        125.0472       0.05136427        125.0471        0.3060982         26.7353
4.8688                 0.2996294        24.93682        0.0564547        121.2161       0.05645459         121.216         0.299629        24.93688
4.8702                 0.2928572        23.07378       0.06171207        117.6131       0.06171197         117.613        0.2928569        23.07383
4.8716                 0.2857735         21.1445        0.0671121        114.1858       0.06711201        114.1857        0.2857732        21.14455