! TOUCHSTONE file generated by CST MICROWAVE STUDIO
! Date and time: Mon Dec  2 04:50:24 2024
! Project name: test_tuning.cst
! Parameters = {airCoaxOuterDiameter=3; chamferAngle=45; chamferWidth=24; connectorLength=10; drillingHoleDiameter=4.1; feedLength=60; flareDiameter=130; flareLength=70; gratingDistance=0; gratingGap=1.90274; outletLength=70; polarizerLength=134; probe1Diameter=1.3; probe1Distance=14; probe1Length=12; probe2Diameter=1.3; probe2Distance=0; probe2Length=12; probeLength=12; smaInnerDiameter=1.3; smaOuterDiameter=4.1; transitionCoefficient=1.33; waveguideFeedLength=30; waveguideSide=50; waveguideThickness=3; wireCount=25; wireDiameter=1.17699}
! Header version: 2024
! Port assignment regex: !\s*Touchstone port\s*([0-9]+)\s*=\s*(CST MWS port|CST DES external port|CST DES block port)\s*(.+)\s* \(\"(.*)\"\)(\s*mode\s*([0-9]+))?.*
! Touchstone port assignment:
! Touchstone port 1 = CST MWS port 1 ("Input1")
! Touchstone port 2 = CST MWS port 2 ("Input2")
# GHz S MA R 50
4.6                    0.2429686       -168.6333        0.6105765        70.35682        0.6105785        70.35704        0.2429658       -168.6338
4.6014                 0.2492144       -169.0589        0.6125765        69.43133        0.6125786        69.43152        0.2492118       -169.0593
4.6028                 0.2557785       -169.5288        0.6144443        68.51804        0.6144464        68.51818         0.255776       -169.5292
4.6042                  0.262608        -170.058        0.6162599        67.61662         0.616262        67.61673        0.2626057       -170.0582
4.6056                 0.2696264       -170.6539        0.6180946        66.72392        0.6180966          66.724        0.2696243       -170.6541
4.607                  0.2767465       -171.3166        0.6200002         65.8345        0.6200022        65.83456        0.2767445       -171.3167
4.6084                 0.2838829       -172.0394        0.6220013        64.94161        0.6220029        64.94164        0.2838812       -172.0395
4.6098                 0.2909648        -172.811        0.6240921        64.03833        0.6240935        64.03834        0.2909633       -172.8111
4.6112                 0.2979439       -173.6172        0.6262388        63.11865          0.62624        63.11865        0.2979426       -173.6172
4.6126                  0.304799       -174.4434        0.6283856        62.17833        0.6283868        62.17831        0.3047979       -174.4434
4.614                  0.3115363       -175.2771        0.6304643         61.2154        0.6304653        61.21538        0.3115354        -175.277
4.6154                 0.3181854       -176.1086        0.6324043        60.23041        0.6324052        60.23039        0.3181848       -176.1086
4.6168                 0.3247921        -176.933        0.6341435         59.2261         0.634144        59.22607        0.3247918        -176.933
4.6182                  0.331409       -177.7496        0.6356357        58.20693        0.6356362        58.20691         0.331409       -177.7495
4.6196                 0.3380855       -178.5618        0.6368574        57.17829        0.6368578        57.17826        0.3380858       -178.5617
4.621                  0.3448588       -179.3764        0.6378089        56.14569        0.6378092        56.14566        0.3448594       -179.3763
4.6224                 0.3517474        179.7984        0.6385125        55.11395        0.6385126        55.11391        0.3517482        179.7984
4.6238                 0.3587474         178.954        0.6390075        54.08655        0.6390074        54.08652        0.3587484         178.954
4.6252                 0.3658329        178.0832        0.6393429        53.06522        0.6393428        53.06519         0.365834        178.0832
4.6266                 0.3729598        177.1814        0.6395693        52.04977        0.6395691        52.04976         0.372961        177.1813
4.628                  0.3800726        176.2467        0.6397302         51.0383        0.6397298         51.0383        0.3800738        176.2466
4.6294                 0.3871115        175.2808        0.6398551        50.02755        0.6398546        50.02755        0.3871126        175.2807
4.6308                 0.3940212        174.2879        0.6399554        49.01354        0.6399549        49.01355        0.3940223        174.2878
4.6322                 0.4007581        173.2743        0.6400232        47.99228        0.6400227        47.99229         0.400759        173.2742
4.6336                 0.4072943        172.2474        0.6400325        46.96043         0.640032        46.96046        0.4072952        172.2473
4.635                   0.413621        171.2145        0.6399443        45.91586        0.6399438         45.9159        0.4136219        171.2144
4.6364                 0.4197476        170.1821        0.6397128        44.85798        0.6397125        44.85802        0.4197484         170.182
4.6378                 0.4256983        169.1549        0.6392924        43.78782        0.6392922        43.78786         0.425699        169.1548
4.6392                 0.4315069        168.1354        0.6386451         42.7079         0.638645        42.70794        0.4315076        168.1353
4.6406                 0.4372107        167.1237        0.6377458        41.62184        0.6377458        41.62188        0.4372115        167.1236
4.642                  0.4428432        166.1179         0.636586        40.53386        0.6365861        40.53391         0.442844        166.1178
4.6434                 0.4484283        165.1143        0.6351747        39.44817        0.6351747        39.44821        0.4484291        165.1143
4.6448                  0.453976        164.1087        0.6335363        38.36842        0.6335364        38.36846        0.4539768        164.1086
4.6462                 0.4594807        163.0965        0.6317079        37.29721        0.6317079        37.29724        0.4594816        163.0964
4.6476                 0.4649215        162.0739        0.6297322        36.23579        0.6297323        36.23581        0.4649224        162.0738
4.649                  0.4702655        161.0385        0.6276524        35.18393        0.6276524        35.18395        0.4702664        161.0384
4.6504                 0.4754725        159.9897        0.6255054        34.14009        0.6255054        34.14011        0.4754734        159.9896
4.6518                 0.4805008        158.9284        0.6233172         33.1017        0.6233171        33.10171        0.4805018        158.9283
4.6532                 0.4853133        157.8576        0.6210996        32.06561        0.6210994        32.06562        0.4853141        157.8575
4.6546                 0.4898822         156.781        0.6188494        31.02864        0.6188492        31.02866         0.489883         156.781
4.656                  0.4941929        155.7034        0.6165501        29.98815        0.6165499        29.98817        0.4941936        155.7034
4.6574                 0.4982451        154.6294        0.6141752        28.94242        0.6141749        28.94245        0.4982458        154.6294
4.6588                 0.5020528        153.5629        0.6116936        27.89097        0.6116933          27.891        0.5020534        153.5629
4.6602                 0.5056408        152.5069        0.6090749        26.83461        0.6090747        26.83464        0.5056413        152.5069
4.6616                 0.5090408        151.4628         0.606295        25.77533        0.6062948        25.77537        0.5090414        151.4628
4.663                  0.5122863        150.4306        0.6033403        24.71602        0.6033402        24.71606         0.512287        150.4306
4.6644                 0.5154073        149.4087        0.6002102        23.66002        0.6002103        23.66006        0.5154081        149.4087
4.6658                 0.5184254        148.3945        0.5969179        22.61063         0.596918        22.61067        0.5184262        148.3945
4.6672                 0.5213508        147.3849        0.5934884        21.57063        0.5934886        21.57067        0.5213517        147.3849
4.6686                 0.5241811        146.3765        0.5899559        20.54187         0.589956         20.5419         0.524182        146.3765
4.67                   0.5269017        145.3665        0.5863584        19.52501        0.5863586        19.52503        0.5269026        145.3665
4.6714                 0.5294885        144.3531        0.5827333         18.5194        0.5827334        18.51942        0.5294894         144.353
4.6728                 0.5319119        143.3355        0.5791118        17.52325        0.5791119        17.52326        0.5319128        143.3354
4.6742                 0.5341419        142.3144        0.5755156        16.53382        0.5755157        16.53383        0.5341427        142.3144
4.6756                  0.536152        141.2917        0.5719541        15.54794        0.5719541        15.54795        0.5361525        141.2916
4.677                  0.5379238        140.2701        0.5684241         14.5624        0.5684242        14.56241        0.5379243        140.2701
4.6784                 0.5394502        139.2528        0.5649117         13.5745        0.5649117        13.57451        0.5394505        139.2528
4.6798                 0.5407354        138.2432        0.5613945         12.5824        0.5613945         12.5824        0.5407357        138.2431
4.6812                 0.5417947        137.2439         0.557847        11.58537         0.557847        11.58537        0.5417949        137.2438
4.6826                  0.542652         136.257        0.5542447        10.58388        0.5542447        10.58388        0.5426521        136.2569
4.684                  0.5433362        135.2833        0.5505684        9.579453        0.5505684        9.579449        0.5433363        135.2833
4.6854                 0.5438763        134.3225        0.5468085        8.574394        0.5468084        8.574387        0.5438764        134.3225
4.6868                 0.5442976        133.3732        0.5429658        7.571373        0.5429659        7.571364        0.5442978        133.3732
4.6882                 0.5446175        132.4331        0.5390528        6.572966        0.5390527        6.572953        0.5446177        132.4332
4.6896                 0.5448431        131.4996        0.5350913        5.581199        0.5350911        5.581183        0.5448434        131.4996
4.691                  0.5449706        130.5697          0.53111        4.597167        0.5311098         4.59715        0.5449709        130.5697
4.6924                 0.5449857        129.6413        0.5271404        3.620809        0.5271401        3.620791        0.5449861        129.6413
4.6938                 0.5448664        128.7128         0.523212        2.650832        0.5232116        2.650817        0.5448669        128.7128
4.6952                 0.5445864        127.7837        0.5193486        1.684838        0.5193482        1.684829         0.544587        127.7837
4.6966                 0.5441197        126.8547        0.5155652       0.7196115        0.5155648       0.7196094        0.5441202        126.8548
4.698                  0.5434435        125.9275        0.5118661      -0.2484736        0.5118656      -0.2484661        0.5434442        125.9276
4.6994                 0.5425429        125.0045        0.5082448       -1.222985        0.5082442       -1.222966        0.5425436        125.0046
4.7008                 0.5414121        124.0886        0.5046856       -2.206988         0.504685       -2.206957        0.5414128        124.0886
4.7022                 0.5400551        123.1826        0.5011667       -3.202689        0.5011662       -3.202647        0.5400559        123.1827
4.7036                  0.538485        122.2891         0.497664       -4.211247        0.4976636       -4.211192        0.5384859        122.2892
4.705                  0.5367214          121.41        0.4941551       -5.232706        0.4941547       -5.232651        0.5367223          121.41
4.7064                 0.5347869         120.546        0.4906226       -6.266161        0.4906223       -6.266108        0.5347878        120.5461
4.7078                 0.5327032        119.6972        0.4870574       -7.310219        0.4870573       -7.310165        0.5327042        119.6972
4.7092                 0.5304874        118.8626        0.4834597       -8.363154        0.4834596         -8.3631        0.5304884        118.8627
4.7106                 0.5281491        118.0407        0.4798385       -9.423516        0.4798386       -9.423451        0.5281502        118.0408
4.712                  0.5256886        117.2299        0.4762106       -10.49059        0.4762107       -10.49053        0.5256898        117.2299
4.7134                 0.5230966        116.4285        0.4725969       -11.56468        0.4725971       -11.56463        0.5230977        116.4285
4.7148                 0.5203553        115.6356        0.4690194       -12.64731        0.4690195       -12.64727        0.5203564        115.6356
4.7162                 0.5174415        114.8513        0.4654967       -13.74125        0.4654969       -13.74122        0.5174426        114.8513
4.7176                 0.5143301        114.0767        0.4620413       -14.85035        0.4620415       -14.85033        0.5143311        114.0767
4.719                  0.5109974        113.3143        0.4586564       -15.97923        0.4586566       -15.97921        0.5109984        113.3143
4.7204                 0.5074258        112.5676        0.4553354       -17.13288        0.4553356       -17.13287        0.5074266        112.5676
4.7218                 0.5036057        111.8413        0.4520616       -18.31621        0.4520618        -18.3162        0.5036065        111.8413
4.7232                 0.4995378        111.1403        0.4488101       -19.53362        0.4488103       -19.53361        0.4995384        111.1403
4.7246                 0.4952331          110.47        0.4455501       -20.78877        0.4455503       -20.78876        0.4952337          110.47
4.726                  0.4907124        109.8356        0.4422484       -22.08438        0.4422485       -22.08438        0.4907129        109.8357
4.7274                 0.4860034        109.2421        0.4388721       -23.42231        0.4388722       -23.42231        0.4860038        109.2421
4.7288                 0.4811386        108.6938        0.4353915       -24.80372        0.4353916       -24.80372         0.481139        108.6938
4.7302                 0.4761525        108.1945        0.4317811        -26.2294        0.4317811       -26.22941        0.4761529        108.1946
4.7316                 0.4710794        107.7479        0.4280202       -27.70013        0.4280203       -27.70014          0.47108         107.748
4.733                  0.4659528        107.3575         0.424092       -29.21705        0.4240921       -29.21706        0.4659534        107.3575
4.7344                 0.4608056        107.0271        0.4199808       -30.78195        0.4199809       -30.78196        0.4608062        107.0272
4.7358                 0.4556728        106.7613        0.4156699        -32.3974        0.4156698       -32.39742        0.4556734        106.7613
4.7372                 0.4505952        106.5652        0.4111372       -34.06678        0.4111371       -34.06681        0.4505959        106.5653
4.7386                 0.4456243        106.4448        0.4063538         -35.794        0.4063538       -35.79402        0.4456251        106.4449
4.74                   0.4408266        106.4064        0.4012811       -37.58311         0.401281       -37.58314        0.4408274        106.4064
4.7414                 0.4362882        106.4557        0.3958704       -39.43785        0.3958702       -39.43786         0.436289        106.4558
4.7428                 0.4321166         106.597        0.3900639        -41.3609        0.3900637       -41.36092        0.4321174        106.5971
4.7442                 0.4284398        106.8317        0.3837973       -43.35341         0.383797       -43.35342        0.4284406        106.8317
4.7456                 0.4254017        107.1566        0.3770035       -45.41436        0.3770031       -45.41435        0.4254024        107.1566
4.747                  0.4231541        107.5628        0.3696178       -47.54012        0.3696175       -47.54011         0.423155        107.5628
4.7484                  0.421845        108.0349        0.3615833       -49.72423         0.361583        -49.7242        0.4218459        108.0349
4.7498                 0.4216041        108.5504        0.3528566       -51.95716        0.3528562       -51.95714         0.421605        108.5505
4.7512                 0.4225285        109.0812        0.3434116        -54.2265        0.3434113       -54.22648        0.4225294        109.0812
4.7526                 0.4246698        109.5947        0.3332448       -56.51698        0.3332446       -56.51694        0.4246708        109.5947
4.754                  0.4280252        110.0569        0.3223767       -58.81082        0.3223766       -58.81076        0.4280263        110.0569
4.7554                 0.4325341        110.4353         0.310853        -61.0881        0.3108528       -61.08806        0.4325352        110.4353
4.7568                 0.4380807        110.7016        0.2987438       -63.32724        0.2987438       -63.32719        0.4380819        110.7016
4.7582                 0.4445023        110.8338        0.2861421       -65.50544         0.286142        -65.5054        0.4445035        110.8337
4.7596                 0.4516021        110.8176        0.2731591       -67.59929        0.2731591       -67.59924        0.4516033        110.8176
4.761                  0.4591636        110.6469        0.2599208       -69.58535        0.2599207        -69.5853        0.4591647        110.6468
4.7624                 0.4669656        110.3226        0.2465617       -71.44084        0.2465617       -71.44081        0.4669666        110.3225
4.7638                 0.4747958         109.852        0.2332194       -73.14438        0.2332194       -73.14435        0.4747967        109.8519
4.7652                 0.4824617         109.247        0.2200284       -74.67664        0.2200284       -74.67662        0.4824626        109.2469
4.7666                 0.4897988        108.5227        0.2071145       -76.02116        0.2071145       -76.02113        0.4897996        108.5226
4.768                  0.4966751         107.696        0.1945894       -77.16484        0.1945894       -77.16481        0.4966758        107.6959
4.7694                 0.5029929         106.784        0.1825469       -78.09845        0.1825468       -78.09839        0.5029935        106.7839
4.7708                 0.5086878        105.8035        0.1710601       -78.81668        0.1710601       -78.81664        0.5086884        105.8034
4.7722                 0.5137261        104.7699        0.1601805       -79.31807        0.1601805       -79.31801        0.5137266        104.7698
4.7736                 0.5180994        103.6968        0.1499384       -79.60418        0.1499384       -79.60413        0.5180998        103.6967
4.775                  0.5218198        102.5959        0.1403453       -79.67896        0.1403453       -79.67891        0.5218201        102.5958
4.7764                 0.5249137        101.4765        0.1313976       -79.54748        0.1313977       -79.54742         0.524914        101.4764
4.7778                 0.5274162        100.3462        0.1230806       -79.21508        0.1230807       -79.21503        0.5274164        100.3461
4.7792                 0.5293666         99.2106        0.1153733       -78.68672        0.1153734       -78.68667        0.5293667        99.21055
4.7806                  0.530804        98.07402        0.1082517       -77.96684        0.1082519       -77.96682        0.5308041        98.07394
4.782                  0.5317656        96.93953        0.1016921       -77.06014        0.1016923       -77.06014        0.5317656        96.93948
4.7834                 0.5322846        95.80955       0.09567167       -75.97266       0.09567179       -75.97266        0.5322846        95.80947
4.7848                 0.5323913        94.68593       0.09016836       -74.71334       0.09016847       -74.71338         0.532391        94.68585
4.7862                 0.5321122        93.57039       0.08515941       -73.29564       0.08515948       -73.29569        0.5321119        93.57036
4.7876                 0.5314732        92.46459       0.08061898       -71.73822       0.08061902       -71.73829        0.5314729        92.46456
4.789                  0.5304998        91.37007       0.07651618       -70.06471       0.07651618       -70.06478        0.5304994        91.37004
4.7904                 0.5292186        90.28825       0.07281377        -68.3021       0.07281373       -68.30216        0.5292182        90.28825
4.7918                 0.5276582        89.22051       0.06946833       -66.47777       0.06946828       -66.47782        0.5276578        89.22051
4.7932                 0.5258488        88.16777       0.06643212       -64.61596       0.06643205       -64.61601        0.5258483        88.16778
4.7946                 0.5238219        87.13055         0.063656       -62.73444       0.06365594       -62.73445        0.5238215        87.13055
4.796                  0.5216086        86.10877       0.06109342       -60.84191       0.06109336       -60.84191        0.5216082         86.1088
4.7974                 0.5192383        85.10182        0.0587041       -58.93728       0.05870404       -58.93728        0.5192379        85.10185
4.7988                 0.5167368        84.10853       0.05645698       -57.01063       0.05645693       -57.01063        0.5167365        84.10856
4.8002                 0.5141252        83.12722       0.05433183       -55.04571       0.05433179        -55.0457        0.5141249        83.12726
4.8016                  0.511418        82.15606       0.05231912       -53.02369       0.05231908        -53.0237        0.5114178        82.15608
4.803                  0.5086245        81.19307       0.05041832       -50.92742       0.05041827       -50.92744        0.5086244        81.19311
4.8044                 0.5057475        80.23654       0.04863484       -48.74531       0.04863477       -48.74533        0.5057474        80.23657
4.8058                 0.5027856        79.28503        0.0469762       -46.47418       0.04697611       -46.47418        0.5027856        79.28506
4.8072                 0.4997348        78.33764       0.04544813       -44.12025       0.04544802       -44.12023        0.4997348        78.33769
4.8086                 0.4965903        77.39404       0.04405138       -41.69782       0.04405126       -41.69777        0.4965902        77.39407
4.81                   0.4933481        76.45439       0.04277986       -39.22568       0.04277973       -39.22558         0.493348        76.45442
4.8114                 0.4900075        75.51925       0.04162069       -36.72203       0.04162057       -36.72188        0.4900074        75.51927
4.8128                 0.4865714        74.58943       0.04055593       -34.19914       0.04055584       -34.19893        0.4865714        74.58944
4.8142                  0.483047        73.66574       0.03956587       -31.65908       0.03956581       -31.65883         0.483047        73.66577
4.8156                 0.4794453        72.74885       0.03863285       -29.09169       0.03863283        -29.0914        0.4794452        72.74888
4.817                  0.4757796        71.83899       0.03774498        -26.4753       0.03774499       -26.47501        0.4757796        71.83901
4.8184                 0.4720649         70.9359       0.03689888       -23.78022       0.03689894       -23.77994        0.4720648        70.93593
4.8198                  0.468315        70.03879         0.036101       -20.97439        0.0361011       -20.97414        0.4683149        70.03879
4.8212                 0.4645414        69.14632       0.03536709       -18.03047       0.03536721       -18.03027        0.4645413        69.14633
4.8226                 0.4607516         68.2568       0.03471985       -14.93314       0.03471998       -14.93299        0.4607515        68.25682
4.824                  0.4569485        67.36832       0.03418512       -11.68504       0.03418526       -11.68494        0.4569484        67.36834
4.8254                 0.4531302        66.47899       0.03378719       -8.309631       0.03378731       -8.309572          0.45313        66.47899
4.8268                 0.4492904        65.58714       0.03354414       -4.849447       0.03354425       -4.849414        0.4492902        65.58714
4.8282                 0.4454198        64.69154       0.03346448       -1.359567       0.03346458       -1.359541        0.4454195        64.69155
4.8296                 0.4415076        63.79153       0.03354582        2.102364        0.0335459        2.102394        0.4415073        63.79154
4.831                  0.4375437        62.88698       0.03377603        5.486576       0.03377612        5.486616        0.4375433        62.88698
4.8324                 0.4335197        61.97833       0.03413667        8.758951       0.03413677           8.759        0.4335193        61.97832
4.8338                 0.4294308        61.06637       0.03460744        11.90409       0.03460756        11.90413        0.4294303        61.06637
4.8352                 0.4252765        60.15212       0.03517076        14.92347       0.03517089        14.92351         0.425276        60.15212
4.8366                 0.4210603        59.23656       0.03581532        17.82997       0.03581547        17.82997        0.4210597        59.23657
4.838                  0.4167895        58.32041       0.03653794        20.64061        0.0365381        20.64057         0.416789        58.32042
4.8394                  0.412474        57.40392       0.03734357        23.36954       0.03734375        23.36945        0.4124735        57.40394
4.8408                 0.4081246        56.48681       0.03824349        26.02268       0.03824366        26.02254         0.408124        56.48684
4.8422                 0.4037509        55.56816       0.03925217        28.59507       0.03925231        28.59488        0.4037504        55.56819
4.8436                 0.3993608         54.6465       0.04038351         31.0713       0.04038363        31.07109        0.3993603        54.64654
4.845                   0.394958        53.71994       0.04164735        33.42882       0.04164744         33.4286        0.3949576        53.71997
4.8464                 0.3905422        52.78635       0.04304687        35.64289       0.04304693        35.64267        0.3905418        52.78639
4.8478                 0.3861089        51.84366       0.04457753        37.69206       0.04457755        37.69185        0.3861086        51.84368
4.8492                 0.3816497           50.89       0.04622767        39.56251       0.04622767        39.56233        0.3816494        50.89001
4.8506                 0.3771538        49.92395       0.04798055        41.25045       0.04798055        41.25029        0.3771534        49.92396
4.852                  0.3726091        48.94465       0.04981726        42.76228       0.04981725        42.76215        0.3726088        48.94466
4.8534                 0.3680046        47.95184       0.05171984        44.11293       0.05171982        44.11281        0.3680043        47.95184
4.8548                 0.3633311        46.94575       0.05367412        45.32284       0.05367413        45.32274        0.3633307        46.94574
4.8562                 0.3585824        45.92702       0.05567182        46.41468       0.05567182        46.41458        0.3585819        45.92701
4.8576                 0.3537563        44.89645       0.05771146        47.40996       0.05771147        47.40986        0.3537558        44.89643
4.859                  0.3488543        43.85476       0.05979828        48.32643       0.05979829        48.32632        0.3488537        43.85474
4.8604                 0.3438811        42.80235       0.06194295        49.17625       0.06194296        49.17613        0.3438804        42.80234
4.8618                 0.3388433        41.73915       0.06415957        49.96524       0.06415957         49.9651        0.3388426        41.73913
4.8632                 0.3337483        40.66437       0.06646312        50.69322        0.0664631        50.69307        0.3337475        40.66436
4.8646                 0.3286023        39.57658        0.0688669        51.35526       0.06886686        51.35512        0.3286016        39.57657
4.866                  0.3234097        38.47365       0.07138045        51.94364       0.07138038         51.9435        0.3234088        38.47364
4.8674                  0.318171        37.35297       0.07400809        52.44994       0.07400802        52.44981        0.3181702        37.35295
4.8688                 0.3128832        36.21158       0.07674869        52.86711       0.07674858          52.867        0.3128824        36.21156
4.8702                 0.3075393        35.04649       0.07959623        53.19098       0.07959611        53.19089        0.3075384        35.04647
4.8716                 0.3021287        33.85486       0.08254134        53.42105       0.08254121        53.42097        0.3021279        33.85484