! TOUCHSTONE file generated by CST MICROWAVE STUDIO
! Date and time: Mon Dec  2 04:50:24 2024
! Project name: test_tuning.cst
! Parameters = {airCoaxOuterDiameter=3; chamferAngle=45; chamferWidth=24; connectorLength=10; drillingHoleDiameter=4.1; feedLength=60; flareDiameter=130; flareLength=70; gratingDistance=0; gratingGap=1.90274; outletLength=40; polarizerLength=134; probe1Diameter=1.3; probe1Distance=14; probe1Length=12; probe2Diameter=1.3; probe2Distance=0; probe2Length=12; probeLength=12; smaInnerDiameter=1.3; smaOuterDiameter=4.1; transitionCoefficient=1.33; waveguideFeedLength=30; waveguideSide=50; waveguideThickness=3; wireCount=25; wireDiameter=1.17699}
! Header version: 2024
! Port assignment regex: !\s*Touchstone port\s*([0-9]+)\s*=\s*(CST MWS port|CST DES external port|CST DES block port)\s*(.+)\s* \(\"(.*)\"\)(\s*mode\s*([0-9]+))?.*
! Touchstone port assignment:
! Touchstone port 1 = CST MWS port 1 ("Input1")
! Touchstone port 2 = CST MWS port 2 ("Input2")
# GHz S MA R 50
4.6                    0.2348741       -157.7537        0.6091245        64.72147        0.6091245        64.72145        0.2348744       -157.7537
4.6014                 0.2435446       -158.5113        0.6080086        63.94318        0.6080086        63.94315        0.2435449       -158.5113
4.6028                 0.2524637       -159.3154        0.6067886        63.18365        0.6067886        63.18364        0.2524641       -159.3155
4.6042                 0.2616149       -160.1711        0.6055018        62.44503        0.6055018        62.44502        0.2616153       -160.1712
4.6056                 0.2709735        -161.082        0.6041914        61.72876        0.6041914        61.72873        0.2709739       -161.0821
4.607                  0.2805072       -162.0506        0.6029048        61.03549        0.6029047        61.03547        0.2805075       -162.0507
4.6084                 0.2901767       -163.0777        0.6016916        60.36497        0.6016915        60.36496         0.290177       -163.0779
4.6098                 0.2999371       -164.1629        0.6006017        59.71591        0.6006016        59.71589        0.2999374       -164.1631
4.6112                 0.3097393       -165.3042        0.5996828        59.08603        0.5996828        59.08601        0.3097395       -165.3043
4.6126                 0.3195314       -166.4983        0.5989782        58.47202        0.5989779        58.47202        0.3195316       -166.4984
4.614                  0.3292607       -167.7407        0.5985238        57.86972        0.5985236        57.86971        0.3292608       -167.7408
4.6154                 0.3388754       -169.0261         0.598347         57.2742        0.5983468        57.27419        0.3388755       -169.0262
4.6168                 0.3483261       -170.3485        0.5984649        56.68001        0.5984648           56.68        0.3483262       -170.3486
4.6182                 0.3575678       -171.7011        0.5988832        56.08143        0.5988831        56.08143        0.3575677       -171.7012
4.6196                 0.3665606        -173.077        0.5995958        55.47273        0.5995958        55.47271        0.3665606       -173.0771
4.621                  0.3752717       -174.4693        0.6005851        54.84839         0.600585        54.84839        0.3752717       -174.4693
4.6224                 0.3836754       -175.8709         0.601823        54.20344        0.6018229        54.20344        0.3836754        -175.871
4.6238                 0.3917542       -177.2754         0.603272        53.53361         0.603272         53.5336        0.3917543       -177.2754
4.6252                 0.3994987       -178.6764        0.6048876        52.83546        0.6048876        52.83546        0.3994988       -178.6764
4.6266                 0.4069076        179.9315          0.60662        52.10658          0.60662        52.10658        0.4069078        179.9315
4.628                  0.4139872        178.5532        0.6084166        51.34551        0.6084166        51.34551        0.4139875        178.5532
4.6294                 0.4207506        177.1929         0.610224        50.55185         0.610224        50.55184         0.420751        177.1929
4.6308                 0.4272169        175.8535        0.6119906        49.72606        0.6119907        49.72605        0.4272174        175.8535
4.6322                 0.4334094        174.5375        0.6136685        48.86947        0.6136685        48.86946        0.4334099        174.5375
4.6336                 0.4393547        173.2461        0.6152146        47.98409        0.6152147        47.98408        0.4393553         173.246
4.635                  0.4450812        171.9797        0.6165925        47.07243        0.6165924        47.07242        0.4450819        171.9797
4.6364                 0.4506171         170.738        0.6177725        46.13738        0.6177724        46.13736        0.4506178         170.738
4.6378                 0.4559895        169.5199        0.6187326        45.18202        0.6187325        45.18201        0.4559901        169.5199
4.6392                 0.4612227        168.3236        0.6194582        44.20947         0.619458        44.20945        0.4612233        168.3236
4.6406                 0.4663375        167.1471        0.6199413        43.22277        0.6199411        43.22275         0.466338         167.147
4.642                    0.47135        165.9877        0.6201804        42.22471        0.6201802        42.22469        0.4713506        165.9876
4.6434                 0.4762717        164.8429        0.6201789        41.21783        0.6201787        41.21782        0.4762722        164.8428
4.6448                 0.4811089        163.7101        0.6199442        40.20428         0.619944        40.20427        0.4811093          163.71
4.6462                  0.485863        162.5868        0.6194866        39.18582        0.6194863         39.1858        0.4858634        162.5868
4.6476                 0.4905313         161.471        0.6188175        38.16379        0.6188172        38.16379        0.4905317         161.471
4.649                  0.4951074        160.3607        0.6179492        37.13921        0.6179489        37.13919        0.4951077        160.3607
4.6504                 0.4995823        159.2547        0.6168928        36.11269        0.6168925        36.11268        0.4995826        159.2547
4.6518                 0.5039454        158.1521        0.6156583        35.08462         0.615658        35.08462        0.5039457        158.1521
4.6532                 0.5081853        157.0522        0.6142537        34.05519        0.6142534        34.05519        0.5081856        157.0522
4.6546                 0.5122911        155.9551        0.6126845        33.02444        0.6126842        33.02444        0.5122914        155.9551
4.656                  0.5162531        154.8608        0.6109542         31.9924        0.6109539         31.9924        0.5162535        154.8608
4.6574                 0.5200634        153.7699        0.6090641        30.95911        0.6090638        30.95911        0.5200638          153.77
4.6588                 0.5237162        152.6831        0.6070138        29.92473        0.6070136        29.92474        0.5237168        152.6831
4.6602                 0.5272088        151.6009         0.604802        28.88955        0.6048018        28.88955        0.5272093         151.601
4.6616                 0.5305403        150.5242         0.602427        27.85402        0.6024267        27.85402         0.530541        150.5242
4.663                  0.5337126        149.4535        0.5998871        26.81878        0.5998868        26.81879        0.5337133        149.4535
4.6644                 0.5367292        148.3893        0.5971817        25.78464        0.5971813        25.78465          0.53673        148.3893
4.6658                 0.5395951        147.3318        0.5943116        24.75256        0.5943112        24.75257        0.5395959        147.3318
4.6672                  0.542316        146.2812        0.5912795        23.72359        0.5912792         23.7236        0.5423169        146.2812
4.6686                 0.5448977        145.2373        0.5880902        22.69884        0.5880899        22.69885        0.5448987        145.2373
4.67                   0.5473454        144.1998        0.5847509        21.67941        0.5847505        21.67942        0.5473464        144.1998
4.6714                 0.5496632        143.1682        0.5812706        20.66633        0.5812702        20.66635        0.5496641        143.1682
4.6728                 0.5518539         142.142        0.5776602        19.66055          0.57766        19.66057        0.5518548         142.142
4.6742                 0.5539183        141.1205        0.5739323         18.6628        0.5739321        18.66282        0.5539192        141.1205
4.6756                 0.5558556        140.1032           0.5701        17.67366        0.5700996        17.67369        0.5558564        140.1032
4.677                  0.5576629        139.0895        0.5661766        16.69346        0.5661763        16.69349        0.5576638        139.0894
4.6784                 0.5593364         138.079        0.5621755        15.72233        0.5621751        15.72237        0.5593372         138.079
4.6798                 0.5608705        137.0715        0.5581087        14.76017        0.5581084        14.76021        0.5608712        137.0714
4.6812                 0.5622595        136.0669        0.5539872        13.80671         0.553987        13.80675        0.5622603        136.0669
4.6826                 0.5634975        135.0654          0.54982        12.86153        0.5498197        12.86157        0.5634983        135.0653
4.684                  0.5645792        134.0672        0.5456142        11.92412        0.5456141        11.92417        0.5645799        134.0672
4.6854                 0.5655001        133.0731        0.5413749        10.99394        0.5413748        10.99399        0.5655009        133.0731
4.6868                 0.5662576        132.0834        0.5371052        10.07046        0.5371051        10.07051        0.5662583        132.0834
4.6882                 0.5668506        131.0991        0.5328066        9.153241        0.5328066         9.15329        0.5668513        131.0991
4.6896                 0.5672801        130.1209        0.5284793         8.24195        0.5284791        8.242001         0.567281        130.1209
4.691                  0.5675494        129.1496        0.5241224        7.336424        0.5241224        7.336472        0.5675503        129.1496
4.6924                 0.5676636        128.1859        0.5197352        6.436664        0.5197352        6.436711        0.5676645        128.1858
4.6938                 0.5676294        127.2303         0.515317        5.542852         0.515317        5.542896        0.5676303        127.2302
4.6952                 0.5674551        126.2833        0.5108676        4.655333        0.5108677        4.655377        0.5674561        126.2833
4.6966                 0.5671497        125.3451        0.5063883        3.774589        0.5063885        3.774629        0.5671507        125.3451
4.698                  0.5667226         124.416        0.5018817         2.90119        0.5018818        2.901228        0.5667235        124.4159
4.6994                 0.5661825        123.4955        0.4973518        2.035751        0.4973519        2.035787        0.5661836        123.4955
4.7008                 0.5655384        122.5836        0.4928043        1.178871        0.4928045        1.178904        0.5655393        122.5836
4.7022                 0.5647971        121.6797        0.4882463       0.3310753        0.4882465       0.3311058        0.5647979        121.6797
4.7036                 0.5639643        120.7833        0.4836863      -0.5072364        0.4836864      -0.5072079        0.5639652        120.7833
4.705                   0.563044        119.8937        0.4791331       -1.335836        0.4791332        -1.33581        0.5630448        119.8937
4.7064                 0.5620384        119.0104        0.4745963       -2.154723        0.4745964       -2.154696        0.5620391        119.0103
4.7078                  0.560948        118.1327         0.470085       -2.964025        0.4700852       -2.963998        0.5609485        118.1326
4.7092                 0.5597715          117.26        0.4656079       -3.764242         0.465608       -3.764215        0.5597721          117.26
4.7106                 0.5585069        116.3921        0.4611722       -4.555954        0.4611723       -4.555931        0.5585074        116.3921
4.712                  0.5571514        115.5287        0.4567841       -5.339977        0.4567842       -5.339955        0.5571518        115.5286
4.7134                 0.5557017        114.6697        0.4524476       -6.117232        0.4524477        -6.11721        0.5557022        114.6697
4.7148                 0.5541551        113.8152        0.4481652       -6.888709        0.4481652       -6.888688        0.5541554        113.8152
4.7162                 0.5525091        112.9655        0.4439371        -7.65541        0.4439372       -7.655389        0.5525095        112.9655
4.7176                 0.5507628        112.1209        0.4397623       -8.418278        0.4397624       -8.418255        0.5507632        112.1209
4.719                  0.5489162        111.2819        0.4356381       -9.178144        0.4356382       -9.178123        0.5489166        111.2819
4.7204                 0.5469712         110.449         0.431561       -9.935685        0.4315611       -9.935663        0.5469716        110.4489
4.7218                 0.5449312        109.6226        0.4275267       -10.69138        0.4275268       -10.69136        0.5449316        109.6226
4.7232                 0.5428007        108.8032        0.4235311       -11.44551        0.4235311       -11.44549        0.5428011        108.8032
4.7246                 0.5405859        107.9912        0.4195702       -12.19815        0.4195703       -12.19813        0.5405864        107.9912
4.726                  0.5382938        107.1867        0.4156411       -12.94919        0.4156412       -12.94917        0.5382943        107.1867
4.7274                 0.5359315        106.3898        0.4117419       -13.69839        0.4117419       -13.69837        0.5359321        106.3898
4.7288                 0.5335067        105.6004        0.4078721       -14.44539        0.4078721       -14.44537        0.5335072        105.6003
4.7302                 0.5310262        104.8181        0.4040327       -15.18982        0.4040327       -15.18979        0.5310267        104.8181
4.7316                 0.5284963        104.0426        0.4002261       -15.93134        0.4002262       -15.93131        0.5284967        104.0425
4.733                  0.5259215        103.2731        0.3964561        -16.6697        0.3964561       -16.66967         0.525922        103.2731
4.7344                 0.5233054        102.5092        0.3927273       -17.40479        0.3927273       -17.40477        0.5233058        102.5091
4.7358                 0.5206495        101.7499         0.389045       -18.13673        0.3890451        -18.1367        0.5206499        101.7499
4.7372                 0.5179539        100.9946        0.3854148       -18.86584        0.3854149       -18.86581        0.5179543        100.9946
4.7386                 0.5152167        100.2427        0.3818419       -19.59269         0.381842       -19.59266        0.5152171        100.2427
4.74                   0.5124351        99.49345        0.3783309       -20.31809        0.3783309       -20.31805        0.5124353        99.49342
4.7414                 0.5096048        98.74647        0.3748852       -21.04303        0.3748853         -21.043        0.5096051        98.74647
4.7428                 0.5067212        98.00152        0.3715071       -21.76872        0.3715072       -21.76868        0.5067214        98.00149
4.7442                 0.5037794        97.25842        0.3681971       -22.49642        0.3681972       -22.49639        0.5037796         97.2584
4.7456                 0.5007745        96.51729        0.3649543       -23.22748        0.3649545       -23.22745        0.5007748        96.51728
4.747                  0.4977026        95.77832        0.3617764       -23.96319        0.3617765       -23.96316        0.4977029        95.77832
4.7484                 0.4945607        95.04192        0.3586594       -24.70476        0.3586596       -24.70474         0.494561        95.04191
4.7498                 0.4913469        94.30848        0.3555986       -25.45329        0.3555988       -25.45327        0.4913472        94.30848
4.7512                 0.4880609        93.57855        0.3525886       -26.20962        0.3525888       -26.20961        0.4880613        93.57858
4.7526                 0.4847038        92.85271        0.3496235       -26.97444        0.3496237       -26.97442        0.4847041         92.8527
4.754                  0.4812776        92.13135        0.3466981       -27.74816        0.3466983       -27.74815         0.481278        92.13135
4.7554                  0.477786        91.41492        0.3438074       -28.53103        0.3438075       -28.53102        0.4777864        91.41492
4.7568                  0.474233        90.70368        0.3409474       -29.32309        0.3409475       -29.32309        0.4742334        90.70365
4.7582                  0.470623        89.99772        0.3381155       -30.12429        0.3381157       -30.12429        0.4706235        89.99769
4.7596                 0.4669606          89.297        0.3353104       -30.93447        0.3353104       -30.93447         0.466961          89.297
4.761                  0.4632495        88.60133        0.3325321       -31.75352        0.3325321       -31.75353        0.4632499        88.60127
4.7624                 0.4594929         87.9103        0.3297818       -32.58139        0.3297819       -32.58139        0.4594933        87.91027
4.7638                 0.4556925        87.22352        0.3270623       -33.41818        0.3270623       -33.41818        0.4556928        87.22349
4.7652                 0.4518486        86.54035        0.3243767       -34.26419        0.3243768       -34.26419        0.4518488        86.54032
4.7666                 0.4479599         85.8603         0.321729       -35.11999         0.321729       -35.11999        0.4479601        85.86024
4.768                  0.4440235        85.18274        0.3191229       -35.98641        0.3191228       -35.98641        0.4440237        85.18268
4.7694                 0.4400352        84.50726         0.316562       -36.86458        0.3165619       -36.86457        0.4400352        84.50723
4.7708                 0.4359893        83.83359        0.3140491       -37.75588        0.3140491       -37.75586        0.4359893        83.83356
4.7722                 0.4318793        83.16156        0.3115862       -38.66195        0.3115861       -38.66194        0.4318792        83.16154
4.7736                 0.4276984        82.49129        0.3091736       -39.58462        0.3091735       -39.58461        0.4276982        82.49127
4.775                  0.4234394        81.82312        0.3068106       -40.52585        0.3068105       -40.52581        0.4234392         81.8231
4.7764                 0.4190958        81.15769        0.3044948       -41.48763        0.3044947        -41.4876        0.4190956        81.15766
4.7778                 0.4146617        80.49584        0.3022225       -42.47197        0.3022225       -42.47195        0.4146615        80.49581
4.7792                 0.4101325        79.83863         0.299989       -43.48081         0.299989       -43.48078        0.4101323        79.83866
4.7806                 0.4055049        79.18737        0.2977886       -44.51592        0.2977885       -44.51589        0.4055047        79.18737
4.782                  0.4007772        78.54347        0.2956149       -45.57894        0.2956149        -45.5789         0.400777         78.5435
4.7834                 0.3959491        77.90846        0.2934614       -46.67131        0.2934614       -46.67127        0.3959489        77.90846
4.7848                  0.391022         77.2839        0.2913218       -47.79427        0.2913218       -47.79423        0.3910219        77.28394
4.7862                 0.3859986        76.67139        0.2891902       -48.94893        0.2891902       -48.94889        0.3859984        76.67142
4.7876                 0.3808824        76.07254        0.2870615       -50.13626        0.2870616       -50.13621        0.3808822        76.07257
4.789                  0.3756777        75.48888        0.2849317       -51.35715        0.2849318       -51.35711        0.3756776        75.48892
4.7904                 0.3703892         74.9219        0.2827977       -52.61252        0.2827978       -52.61248        0.3703892        74.92193
4.7918                 0.3650215        74.37305        0.2806575       -53.90335        0.2806575       -53.90332        0.3650215        74.37308
4.7932                 0.3595789        73.84383          0.27851       -55.23078        0.2785101       -55.23074        0.3595787        73.84388
4.7946                 0.3540649        73.33581        0.2763552       -56.59617        0.2763552       -56.59613        0.3540647        73.33585
4.796                  0.3484827        72.85065        0.2741931       -58.00115        0.2741932       -58.00113        0.3484826        72.85068
4.7974                 0.3428348        72.39027        0.2720243       -59.44769        0.2720244       -59.44766        0.3428347        72.39031
4.7988                 0.3371234         71.9569        0.2698489       -60.93812         0.269849       -60.93809        0.3371232        71.95696
4.8002                 0.3313505        71.55325        0.2676667       -62.47507        0.2676668       -62.47503        0.3313503        71.55331
4.8016                 0.3255187        71.18247        0.2654764       -64.06156        0.2654764       -64.06153        0.3255186        71.18253
4.803                  0.3196321        70.84837        0.2632755       -65.70087        0.2632756       -65.70084         0.319632        70.84843
4.8044                 0.3136964        70.55542        0.2610602       -67.39654        0.2610603       -67.39649        0.3136963        70.55549
4.8058                 0.3077203        70.30877        0.2588252       -69.15223        0.2588252       -69.15222        0.3077201        70.30885
4.8072                 0.3017161        70.11427        0.2565633       -70.97174        0.2565634       -70.97172         0.301716        70.11436
4.8086                 0.2957007        69.97839        0.2542663       -72.85885        0.2542664       -72.85882        0.2957006        69.97848
4.81                   0.2896961        69.90809        0.2519245       -74.81717        0.2519245       -74.81716         0.289696        69.90819
4.8114                 0.2837302        69.91063         0.249527       -76.85029        0.2495271       -76.85026        0.2837301        69.91075
4.8128                 0.2778371        69.99331        0.2470627        -78.9614        0.2470628       -78.96138        0.2778371        69.99342
4.8142                 0.2720571        70.16309        0.2445201       -81.15352        0.2445202       -81.15349        0.2720571         70.1632
4.8156                 0.2664365        70.42613        0.2418879       -83.42925         0.241888       -83.42924        0.2664366        70.42624
4.817                  0.2610271        70.78731        0.2391556        -85.7909        0.2391557       -85.79087        0.2610271        70.78743
4.8184                 0.2558848         71.2496         0.236314       -88.24036        0.2363141       -88.24035        0.2558848        71.24971
4.8198                 0.2510681        71.81348        0.2333553       -90.77923        0.2333554       -90.77923        0.2510682        71.81359
4.8212                 0.2466365        72.47631        0.2302739       -93.40873        0.2302739       -93.40873        0.2466366        72.47642
4.8226                 0.2426474        73.23189        0.2270663       -96.12982        0.2270664       -96.12979        0.2426475        73.23197
4.824                  0.2391539        74.07003        0.2237319       -98.94312        0.2237319       -98.94312         0.239154        74.07013
4.8254                 0.2362017        74.97663        0.2202726       -101.8492        0.2202726       -101.8492        0.2362018        74.97673
4.8268                 0.2338263        75.93379        0.2166932       -104.8481        0.2166932       -104.8481        0.2338264        75.93389
4.8282                 0.2320507        76.92049        0.2130014       -107.9401        0.2130013       -107.9401        0.2320508        76.92057
4.8296                 0.2308833        77.91343        0.2092076       -111.1251        0.2092076       -111.1251        0.2308834        77.91354
4.831                  0.2303172        78.88837        0.2053253       -114.4029        0.2053253       -114.4029        0.2303172        78.88845
4.8324                 0.2303295        79.82119        0.2013703       -117.7732        0.2013703       -117.7732        0.2303296         79.8213
4.8338                 0.2308828         80.6894        0.1973607       -121.2356        0.1973607       -121.2355        0.2308829        80.68951
4.8352                 0.2319265         81.4731         0.193317       -124.7893         0.193317       -124.7893        0.2319266        81.47322
4.8366                 0.2333991         82.1558        0.1892613       -128.4336        0.1892613       -128.4336        0.2333992        82.15591
4.838                  0.2352309        82.72497        0.1852173       -132.1673        0.1852172       -132.1673         0.235231        82.72508
4.8394                  0.237347        83.17213          0.18121       -135.9888          0.18121       -135.9888        0.2373471        83.17224
4.8408                 0.2396698        83.49271        0.1772652       -139.8962        0.1772652       -139.8962          0.23967        83.49282
4.8422                 0.2421219        83.68572         0.173409       -143.8868         0.173409       -143.8867        0.2421221        83.68584
4.8436                 0.2446275        83.75325        0.1696679       -147.9573        0.1696679       -147.9572        0.2446278        83.75335
4.845                  0.2471149        83.69988        0.1660676       -152.1036        0.1660677       -152.1035        0.2471152        83.69999
4.8464                 0.2495172        83.53221        0.1626336       -156.3206        0.1626336       -156.3206        0.2495175        83.53231
4.8478                 0.2517734        83.25824        0.1593899       -160.6025        0.1593899       -160.6024        0.2517736        83.25833
4.8492                 0.2538287        82.88705        0.1563589       -164.9419        0.1563589       -164.9419        0.2538289        82.88714
4.8506                 0.2556353        82.42834        0.1535612       -169.3308        0.1535613       -169.3308        0.2556355        82.42842
4.852                   0.257152        81.89219        0.1510152         -173.76        0.1510152         -173.76        0.2571522        81.89227
4.8534                 0.2583441        81.28889        0.1487364       -178.2194        0.1487364       -178.2194        0.2583443        81.28897
4.8548                 0.2591836        80.62866        0.1467376        177.3018        0.1467376        177.3018        0.2591838        80.62875
4.8562                 0.2596485        79.92171        0.1450284         172.815        0.1450284         172.815        0.2596486        79.92179
4.8576                 0.2597226        79.17808        0.1436153        168.3318        0.1436153        168.3318        0.2597227        79.17816
4.859                  0.2593954        78.40769        0.1425014        163.8636        0.1425014        163.8636        0.2593955        78.40777
4.8604                 0.2586614         77.6203        0.1416867        159.4214        0.1416867        159.4214        0.2586615        77.62038
4.8618                 0.2575204        76.82563        0.1411679        155.0156        0.1411678        155.0156        0.2575205        76.82571
4.8632                 0.2559767        76.03325        0.1409386        150.6552        0.1409386        150.6552        0.2559768        76.03335
4.8646                 0.2540392        75.25285        0.1409897        146.3483        0.1409896        146.3482        0.2540392        75.25294
4.866                  0.2517214         74.4941        0.1413093        142.1011        0.1413092        142.1011        0.2517215        74.49422
4.8674                 0.2490411        73.76685         0.141883        137.9185         0.141883        137.9185        0.2490411        73.76696
4.8688                 0.2460204        73.08107        0.1426942        133.8039        0.1426942        133.8039        0.2460205        73.08118
4.8702                  0.242686        72.44696        0.1437242        129.7589        0.1437241        129.7589        0.2426861        72.44707
4.8716                 0.2390691        71.87491         0.144952         125.784         0.144952         125.784        0.2390692        71.87502