! TOUCHSTONE file generated by CST MICROWAVE STUDIO
! Date and time: Mon Dec  2 04:50:22 2024
! Project name: test_tuning.cst
! Parameters = {airCoaxOuterDiameter=3; chamferAngle=45; chamferWidth=24; connectorLength=10; drillingHoleDiameter=4.1; feedLength=60; flareDiameter=130; flareLength=70; gratingDistance=0; gratingGap=1.90274; outletLength=10; polarizerLength=134; probe1Diameter=1.3; probe1Distance=14; probe1Length=12; probe2Diameter=1.3; probe2Distance=0; probe2Length=12; probeLength=12; smaInnerDiameter=1.3; smaOuterDiameter=4.1; transitionCoefficient=1.33; waveguideFeedLength=30; waveguideSide=50; waveguideThickness=3; wireCount=25; wireDiameter=1.17699}
! Header version: 2024
! Port assignment regex: !\s*Touchstone port\s*([0-9]+)\s*=\s*(CST MWS port|CST DES external port|CST DES block port)\s*(.+)\s* \(\"(.*)\"\)(\s*mode\s*([0-9]+))?.*
! Touchstone port assignment:
! Touchstone port 1 = CST MWS port 1 ("Input1")
! Touchstone port 2 = CST MWS port 2 ("Input2")
# GHz S MA R 50
4.6                    0.1993136       -171.9097        0.6286813        63.26907        0.6286813        63.26906        0.1993135       -171.9099
4.6014                 0.2040057       -172.3653        0.6300821        62.52814        0.6300821        62.52813        0.2040055       -172.3654
4.6028                 0.2087473       -172.8051        0.6315583        61.77865        0.6315583        61.77863        0.2087471       -172.8052
4.6042                 0.2135529       -173.2312        0.6331043        61.01927        0.6331043        61.01927        0.2135527       -173.2313
4.6056                  0.218437       -173.6462        0.6347126        60.24883        0.6347126        60.24883        0.2184368       -173.6463
4.607                  0.2234133        -174.053        0.6363745        59.46617        0.6363744        59.46617        0.2234132        -174.053
4.6084                 0.2284952       -174.4546        0.6380795         58.6703        0.6380795         58.6703        0.2284951       -174.4547
4.6098                 0.2336944       -174.8546        0.6398161         57.8603        0.6398161         57.8603        0.2336943       -174.8547
4.6112                 0.2390216       -175.2567        0.6415716        57.03543        0.6415716        57.03543        0.2390216       -175.2567
4.6126                 0.2444858       -175.6645        0.6433327        56.19505        0.6433327        56.19505        0.2444858       -175.6645
4.614                   0.250094       -176.0818        0.6450847        55.33871        0.6450847        55.33871         0.250094       -176.0818
4.6154                  0.255851       -176.5123        0.6468131        54.46605        0.6468132        54.46605        0.2558511       -176.5123
4.6168                 0.2617597       -176.9596         0.648503        53.57686        0.6485031        53.57686        0.2617598       -176.9596
4.6182                 0.2678202        -177.427         0.650139        52.67111        0.6501392        52.67111        0.2678204       -177.4271
4.6196                 0.2740306       -177.9178        0.6517062        51.74886        0.6517063        51.74886        0.2740308       -177.9178
4.621                  0.2803863       -178.4346        0.6531896        50.81033        0.6531897        50.81033        0.2803866       -178.4346
4.6224                 0.2868805         -178.98        0.6545748        49.85584         0.654575        49.85584        0.2868808       -178.9801
4.6238                  0.293504       -179.5561        0.6558483        48.88582        0.6558484        48.88582        0.2935043       -179.5562
4.6252                 0.3002453        179.8354        0.6569969        47.90082        0.6569971        47.90082        0.3002456        179.8354
4.6266                  0.307091        179.1932        0.6580085        46.90146        0.6580086        46.90146        0.3070914        179.1932
4.628                   0.314026        178.5165        0.6588719        45.88844         0.658872        45.88845        0.3140264        178.5164
4.6294                  0.321033        177.8046        0.6595771        44.86255        0.6595771        44.86256        0.3210335        177.8045
4.6308                 0.3280937        177.0574         0.660115        43.82461        0.6601152        43.82461        0.3280942        177.0573
4.6322                 0.3351883        176.2751         0.660478         42.7755        0.6604781         42.7755        0.3351888         176.275
4.6336                 0.3422961        175.4581        0.6606597        41.71612        0.6606599        41.71612        0.3422966        175.4581
4.635                  0.3493952        174.6074        0.6606551        40.64739        0.6606552         40.6474        0.3493958        174.6073
4.6364                 0.3564637        173.7239          0.66046        39.57026        0.6604603        39.57027        0.3564643        173.7238
4.6378                 0.3634788         172.809        0.6600722        38.48567        0.6600724        38.48567        0.3634794        172.8089
4.6392                 0.3704178        171.8641        0.6594902        37.39454        0.6594904        37.39455        0.3704183         171.864
4.6406                 0.3772579        170.8909         0.658714        36.29779        0.6587142         36.2978        0.3772585        170.8908
4.642                  0.3839767        169.8913        0.6577448        35.19629        0.6577449         35.1963        0.3839772        169.8912
4.6434                  0.390552        168.8673        0.6565846         34.0909        0.6565849        34.09091        0.3905526        168.8672
4.6448                 0.3969623        167.8209        0.6552371        32.98241        0.6552373        32.98241        0.3969629        167.8208
4.6462                 0.4031871        166.7543        0.6537062        31.87156        0.6537064        31.87157        0.4031877        166.7543
4.6476                 0.4092063        165.6699        0.6519972        30.75907        0.6519974        30.75907        0.4092069        165.6698
4.649                  0.4150014        164.5698         0.650116        29.64554        0.6501161        29.64555        0.4150019        164.5697
4.6504                 0.4205547        163.4565        0.6480689        28.53154        0.6480692        28.53154        0.4205553        163.4564
4.6518                 0.4258502        162.3323        0.6458634        27.41755        0.6458635        27.41756        0.4258507        162.3322
4.6532                 0.4308729        161.1997        0.6435066        26.30398        0.6435068        26.30399        0.4308735        161.1997
4.6546                 0.4356099        160.0612        0.6410067        25.19116        0.6410069        25.19117        0.4356104        160.0611
4.656                  0.4400496        158.9192        0.6383714        24.07933        0.6383717        24.07934          0.44005        158.9191
4.6574                 0.4441822        157.7762        0.6356092        22.96864        0.6356094        22.96865        0.4441826        157.7761
4.6588                 0.4479999        156.6346        0.6327277        21.85917        0.6327279        21.85917        0.4480004        156.6346
4.6602                 0.4514969         155.497         0.629735         20.7509        0.6297352        20.75091        0.4514973         155.497
4.6616                  0.454669        154.3658        0.6266386        19.64375        0.6266389        19.64376        0.4546694        154.3658
4.663                  0.4575144        153.2434        0.6234458        18.53753        0.6234461        18.53754        0.4575148        153.2434
4.6644                 0.4600333        152.1324        0.6201632        17.43199        0.6201634          17.432        0.4600338        152.1323
4.6658                 0.4622281        151.0349        0.6167969         16.3268        0.6167971        16.32681        0.4622285        151.0349
4.6672                 0.4641032        149.9536        0.6133522        15.22157        0.6133524        15.22158        0.4641036        149.9535
4.6686                 0.4656653        148.8906        0.6098339        14.11583        0.6098342        14.11584        0.4656657        148.8905
4.67                   0.4669233        147.8482        0.6062459        13.00908        0.6062461        13.00909        0.4669236        147.8481
4.6714                 0.4678881        146.8287        0.6025909        11.90075        0.6025912        11.90076        0.4678884        146.8286
4.6728                 0.4685729        145.8341        0.5988713        10.79024        0.5988715        10.79025        0.4685733         145.834
4.6742                  0.468993        144.8665        0.5950879        9.676942        0.5950881         9.67695        0.4689933        144.8665
4.6756                 0.4691655        143.9279         0.591241        8.560193        0.5912413        8.560201        0.4691658        143.9278
4.677                  0.4691097        143.0199        0.5873298        7.439348          0.58733        7.439356          0.46911        143.0199
4.6784                 0.4688465        142.1443        0.5833526        6.313757        0.5833528        6.313766        0.4688469        142.1443
4.6798                 0.4683988        141.3026        0.5793068        5.182786         0.579307        5.182793         0.468399        141.3025
4.6812                 0.4677906        140.4959        0.5751889        4.045823        0.5751892         4.04583        0.4677909        140.4959
4.6826                 0.4670478        139.7254        0.5709948        2.902294         0.570995        2.902301         0.467048        139.7254
4.684                  0.4661969        138.9919        0.5667194        1.751671        0.5667197        1.751678        0.4661972        138.9919
4.6854                 0.4652657        138.2959        0.5623573       0.5934811        0.5623575       0.5934873         0.465266        138.2958
4.6868                 0.4642826        137.6376        0.5579021      -0.5726825        0.5579023      -0.5726771         0.464283        137.6375
4.6882                 0.4632764        137.0169        0.5533474       -1.747153        0.5533477       -1.747147        0.4632768        137.0169
4.6896                  0.462276        136.4335        0.5486864        -2.93018        0.5486866       -2.930176        0.4622763        136.4334
4.691                  0.4613098        135.8865        0.5439119       -4.121926         0.543912       -4.121922        0.4613101        135.8864
4.6924                 0.4604059        135.3747        0.5390166       -5.322454        0.5390169        -5.32245        0.4604063        135.3747
4.6938                 0.4595915        134.8967        0.5339935       -6.531728        0.5339936       -6.531726        0.4595919        134.8967
4.6952                 0.4588923        134.4505        0.5288354       -7.749607        0.5288356       -7.749604        0.4588927        134.4505
4.6966                 0.4583326        134.0338        0.5235357       -8.975836        0.5235358       -8.975834         0.458333        134.0338
4.698                  0.4579345        133.6441        0.5180879       -10.21004        0.5180881       -10.21004        0.4579349        133.6441
4.6994                  0.457718        133.2783        0.5124861       -11.45175        0.5124863       -11.45175        0.4577185        133.2783
4.7008                 0.4577005        132.9333         0.506725       -12.70036        0.5067252       -12.70036         0.457701        132.9333
4.7022                 0.4578967        132.6056           0.5008       -13.95517        0.5008002       -13.95517        0.4578972        132.6056
4.7036                 0.4583181        132.2916        0.4947073       -15.21535        0.4947075       -15.21535        0.4583185        132.2916
4.705                  0.4589731        131.9875        0.4884439       -16.47987        0.4884441       -16.47987        0.4589736        131.9875
4.7064                  0.459867        131.6895        0.4820079       -17.74767         0.482008       -17.74768        0.4598675        131.6895
4.7078                 0.4610017        131.3938        0.4753982       -19.01758        0.4753984       -19.01758        0.4610023        131.3938
4.7092                 0.4623759        131.0966        0.4686151       -20.28828        0.4686152       -20.28828        0.4623764        131.0966
4.7106                 0.4639852        130.7943        0.4616596       -21.55829        0.4616598       -21.55829        0.4639857        130.7943
4.712                  0.4658222        130.4835        0.4545344       -22.82606        0.4545345       -22.82606        0.4658227        130.4835
4.7134                 0.4678767         130.161         0.447243       -24.08988        0.4472431       -24.08987        0.4678773         130.161
4.7148                 0.4701361        129.8238        0.4397904       -25.34793        0.4397905       -25.34793        0.4701366        129.8238
4.7162                 0.4725851        129.4693        0.4321826        -26.5983        0.4321827       -26.59829        0.4725857        129.4693
4.7176                 0.4752071        129.0953        0.4244271       -27.83889        0.4244272       -27.83889        0.4752076        129.0952
4.719                  0.4779833        128.6997        0.4165325       -29.06753        0.4165327       -29.06753        0.4779838        128.6997
4.7204                 0.4808938        128.2812        0.4085089       -30.28191         0.408509       -30.28191        0.4808943        128.2811
4.7218                 0.4839178        127.8383        0.4003673       -31.47959        0.4003674       -31.47959        0.4839184        127.8383
4.7232                 0.4870339        127.3702        0.3921204       -32.65802        0.3921204       -32.65801        0.4870345        127.3702
4.7246                 0.4902202        126.8764        0.3837815       -33.81452        0.3837816       -33.81451        0.4902207        126.8763
4.726                  0.4934547        126.3566        0.3753657        -34.9463        0.3753658       -34.94629        0.4934552        126.3565
4.7274                 0.4967159        125.8108        0.3668889       -36.05046         0.366889       -36.05045        0.4967164        125.8108
4.7288                 0.4999826        125.2393        0.3583682       -37.12401        0.3583682         -37.124        0.4999831        125.2393
4.7302                 0.5032344        124.6428        0.3498215       -38.16386        0.3498216       -38.16386        0.5032349        124.6427
4.7316                 0.5064515        124.0218        0.3412682       -39.16686        0.3412682       -39.16685         0.506452        124.0218
4.733                  0.5096156        123.3772         0.332728       -40.12979        0.3327281       -40.12978        0.5096161        123.3772
4.7344                 0.5127093        122.7102        0.3242218       -41.04942        0.3242219       -41.04941        0.5127097        122.7102
4.7358                 0.5157165        122.0218        0.3157713       -41.92254        0.3157714       -41.92252        0.5157169        122.0218
4.7372                 0.5186224        121.3133        0.3073985       -42.74595        0.3073985       -42.74594        0.5186229        121.3133
4.7386                  0.521414         120.586         0.299126        -43.5166         0.299126       -43.51658        0.5214144         120.586
4.74                   0.5240793        119.8412        0.2909767       -44.23157        0.2909768       -44.23156        0.5240797        119.8412
4.7414                  0.526608        119.0804        0.2829738       -44.88821        0.2829739       -44.88819        0.5266083        119.0804
4.7428                 0.5289912        118.3049        0.2751403       -45.48412        0.2751404       -45.48411        0.5289916        118.3049
4.7442                 0.5312215        117.5161        0.2674991       -46.01737        0.2674991       -46.01736        0.5312218         117.516
4.7456                  0.533293        116.7153        0.2600723       -46.48651        0.2600723       -46.48648        0.5332933        116.7153
4.747                  0.5352008        115.9039        0.2528814        -46.8907        0.2528815       -46.89067        0.5352011        115.9038
4.7484                 0.5369417        115.0831        0.2459468       -47.22985        0.2459469       -47.22982        0.5369421        115.0831
4.7498                 0.5385135        114.2542        0.2392873       -47.50468        0.2392874       -47.50466        0.5385138        114.2542
4.7512                 0.5399151        113.4184        0.2329201       -47.71689        0.2329202       -47.71687        0.5399153        113.4184
4.7526                 0.5411465        112.5766        0.2268601       -47.86921        0.2268602       -47.86918        0.5411468        112.5766
4.754                  0.5422088          111.73        0.2211196       -47.96545        0.2211197       -47.96542        0.5422091          111.73
4.7554                 0.5431036        110.8795        0.2157081       -48.01055        0.2157082       -48.01054        0.5431039        110.8795
4.7568                 0.5438335         110.026        0.2106319       -48.01064         0.210632       -48.01062        0.5438338         110.026
4.7582                 0.5444018        109.1702        0.2058937       -47.97288        0.2058938       -47.97286        0.5444021        109.1702
4.7596                  0.544812        108.3128        0.2014926       -47.90543        0.2014927        -47.9054        0.5448122        108.3128
4.761                  0.5450684        107.4545        0.1974238       -47.81727        0.1974239       -47.81725        0.5450687        107.4545
4.7624                 0.5451755        106.5958        0.1936788       -47.71804        0.1936789       -47.71802        0.5451757        106.5958
4.7638                 0.5451379        105.7371         0.190245       -47.61775        0.1902451       -47.61775        0.5451381        105.7371
4.7652                 0.5449604        104.8789        0.1871065       -47.52661        0.1871067        -47.5266        0.5449607        104.8789
4.7666                 0.5446482        104.0215        0.1842442       -47.45464        0.1842443       -47.45463        0.5446484        104.0215
4.768                  0.5442058        103.1651        0.1816358       -47.41151         0.181636        -47.4115        0.5442061        103.1651
4.7694                 0.5436383        102.3099        0.1792569       -47.40628         0.179257       -47.40628        0.5436385        102.3099
4.7708                 0.5429501         101.456        0.1770811       -47.44716        0.1770812       -47.44716        0.5429503        101.4561
4.7722                 0.5421457        100.6036        0.1750805       -47.54139        0.1750806       -47.54139        0.5421459        100.6036
4.7736                  0.541229        99.75259        0.1732268       -47.69514        0.1732269       -47.69515        0.5412293        99.75258
4.775                  0.5402041        98.90303        0.1714912       -47.91341        0.1714913       -47.91342        0.5402044        98.90303
4.7764                 0.5390743        98.05488        0.1698453       -48.20006        0.1698455       -48.20006        0.5390745        98.05488
4.7778                 0.5378426        97.20806        0.1682616        -48.5578        0.1682616       -48.55781        0.5378429        97.20808
4.7792                 0.5365118         96.3625        0.1667133       -48.98831        0.1667134       -48.98832         0.536512        96.36252
4.7806                 0.5350843        95.51811        0.1651756       -49.49225        0.1651756       -49.49227        0.5350844        95.51811
4.782                  0.5335619         94.6748        0.1636251       -50.06945        0.1636252       -50.06945         0.533562         94.6748
4.7834                 0.5319462        93.83244        0.1620406       -50.71894        0.1620406       -50.71895        0.5319464        93.83247
4.7848                 0.5302386        92.99102        0.1604028       -51.43911        0.1604029       -51.43913        0.5302388        92.99102
4.7862                 0.5284403        92.15042        0.1586948       -52.22782        0.1586949       -52.22784        0.5284404        92.15045
4.7876                 0.5265517         91.3106        0.1569019       -53.08249        0.1569019        -53.0825        0.5265518         91.3106
4.789                  0.5245736        90.47156        0.1550115       -54.00016        0.1550116       -54.00016        0.5245738        90.47159
4.7904                 0.5225065         89.6333        0.1530135       -54.97765        0.1530135       -54.97765        0.5225066        89.63332
4.7918                 0.5203506        88.79582        0.1508998       -56.01155        0.1508998       -56.01157        0.5203508        88.79584
4.7932                 0.5181065        87.95927        0.1486644       -57.09839        0.1486644       -57.09841        0.5181066        87.95927
4.7946                 0.5157744        87.12368        0.1463036       -58.23459        0.1463036       -58.23459        0.5157745        87.12371
4.796                   0.513355        86.28924        0.1438153       -59.41652        0.1438153       -59.41654        0.5133551        86.28927
4.7974                 0.5108488        85.45612        0.1411995       -60.64064        0.1411995       -60.64065         0.510849        85.45614
4.7988                 0.5082569        84.62457        0.1384578       -61.90342        0.1384578       -61.90342         0.508257        84.62458
4.8002                 0.5055806        83.79477        0.1355934       -63.20141        0.1355933       -63.20141        0.5055807        83.79478
4.8016                 0.5028213        82.96703        0.1326109       -64.53129        0.1326109       -64.53129        0.5028215        82.96704
4.803                  0.4999812        82.14163        0.1295164       -65.88988        0.1295163       -65.88988        0.4999813        82.14164
4.8044                 0.4970625        81.31886        0.1263171       -67.27418        0.1263171       -67.27417        0.4970626        81.31889
4.8058                 0.4940681        80.49906        0.1230213       -68.68135        0.1230213       -68.68134        0.4940682        80.49909
4.8072                 0.4910013        79.68255        0.1196384       -70.10881        0.1196383       -70.10881        0.4910015        79.68257
4.8086                 0.4878661        78.86961        0.1161783       -71.55426        0.1161783       -71.55424        0.4878662        78.86963
4.81                   0.4846666        78.06053        0.1126521       -73.01566         0.112652       -73.01566        0.4846667        78.06055
4.8114                 0.4814076        77.25559        0.1090709       -74.49141        0.1090709       -74.49139        0.4814077        77.25562
4.8128                 0.4780944        76.45499        0.1054466       -75.98025        0.1054466       -75.98023        0.4780944        76.45502
4.8142                 0.4747324        75.65893        0.1017913        -77.4815        0.1017913       -77.48145        0.4747324        75.65895
4.8156                 0.4713277        74.86749       0.09811737       -78.99499       0.09811735       -78.99493        0.4713277        74.86752
4.817                  0.4678864        74.08073       0.09443704       -80.52129       0.09443703       -80.52123        0.4678865        74.08075
4.8184                 0.4644151         73.2986       0.09076261       -82.06179        0.0907626       -82.06174        0.4644151        73.29863
4.8198                 0.4609202        72.52098       0.08710615       -83.61881       0.08710614       -83.61876        0.4609203          72.521
4.8212                 0.4574085        71.74763       0.08347942        -85.1958       0.08347942       -85.19575        0.4574085        71.74767
4.8226                 0.4538862         70.9782       0.07989378        -86.7976       0.07989379       -86.79752        0.4538863        70.97824
4.824                    0.45036        70.21225       0.07636011       -88.43048       0.07636012       -88.43042          0.45036        70.21228
4.8254                 0.4468357         69.4492       0.07288869       -90.10264        0.0728887       -90.10256        0.4468357        69.44923
4.8268                 0.4433191        68.68833       0.06948922       -91.82429       0.06948923       -91.82421        0.4433191        68.68837
4.8282                 0.4398152        67.92882       0.06617077       -93.60809       0.06617077       -93.60801        0.4398153        67.92885
4.8296                 0.4363287        67.16971        0.0629418       -95.46949       0.06294182       -95.46939        0.4363287        67.16974
4.831                  0.4328631        66.40991       0.05981032       -97.42706       0.05981034       -97.42695        0.4328631        66.40995
4.8324                 0.4294214        65.64823       0.05678394       -99.50293       0.05678397       -99.50283        0.4294215        65.64827
4.8338                 0.4260057        64.88336       0.05387018       -101.7232       0.05387021        -101.723        0.4260057        64.88339
4.8352                 0.4226167        64.11385       0.05107678       -104.1181       0.05107681        -104.118        0.4226167        64.11389
4.8366                 0.4192543        63.33822       0.04841213       -106.7226       0.04841216       -106.7224        0.4192543        63.33825
4.838                   0.415917        62.55488       0.04588588        -109.576       0.04588592       -109.5758         0.415917        62.55491
4.8394                 0.4126025        61.76215       0.04350963       -112.7218       0.04350967       -112.7217        0.4126025        61.76219
4.8408                 0.4093069        60.95836       0.04129773       -116.2067       0.04129776       -116.2065        0.4093068        60.95841
4.8422                  0.406025         60.1418       0.03926814       -120.0782       0.03926817        -120.078        0.4060251        60.14183
4.8436                 0.4027509        59.31069       0.03744329       -124.3815       0.03744332       -124.3813        0.4027509        59.31073
4.845                  0.3994769        58.46334       0.03585064       -129.1532       0.03585067       -129.1531        0.3994768        58.46338
4.8464                 0.3961945        57.59805        0.0345227       -134.4144       0.03452273       -134.4143        0.3961943        57.59809
4.8478                  0.392894        56.71315       0.03349624       -140.1605       0.03349627       -140.1603        0.3928939         56.7132
4.8492                 0.3895648        55.80709       0.03281022       -146.3522       0.03281024       -146.3519        0.3895647        55.80713
4.8506                 0.3861953        54.87834       0.03250249       -152.9099        0.0325025       -152.9097        0.3861952        54.87839
4.852                  0.3827733        53.92551       0.03260553       -159.7158       0.03260554       -159.7156        0.3827731        53.92556
4.8534                 0.3792856        52.94732       0.03314232       -166.6252       0.03314232        -166.625        0.3792855        52.94736
4.8548                 0.3757189        51.94256       0.03412349       -173.4864       0.03412348       -173.4863        0.3757187        51.94261
4.8562                 0.3720591        50.91023       0.03554667        179.8369       0.03554666        179.8371        0.3720589        50.91027
4.8576                 0.3682922         49.8494        0.0373981        173.4496       0.03739807        173.4498         0.368292        49.84944
4.859                  0.3644038        48.75933       0.03965568        167.4177       0.03965566        167.4179        0.3644036        48.75938
4.8604                 0.3603798        47.63941        0.0422925          161.77       0.04229248        161.7701        0.3603797        47.63946
4.8618                 0.3562062         46.4892       0.04527977        156.5058       0.04527975         156.506         0.356206        46.48925
4.8632                 0.3518693        45.30838       0.04858893        151.6048       0.04858891        151.6049        0.3518691        45.30842
4.8646                 0.3473558        44.09681       0.05219286        147.0347       0.05219283        147.0347        0.3473556        44.09685
4.866                  0.3426533        42.85449       0.05606633        142.7584       0.05606631        142.7585        0.3426531        42.85454
4.8674                 0.3377499        41.58156       0.06018614        138.7382       0.06018611        138.7383        0.3377497        41.58161
4.8688                 0.3326347        40.27834       0.06453079        134.9384       0.06453076        134.9385        0.3326344        40.27839
4.8702                 0.3272975        38.94524       0.06908032        131.3263       0.06908029        131.3264        0.3272972        38.94529
4.8716                 0.3217296        37.58284       0.07381585        127.8731       0.07381583        127.8732        0.3217293        37.58289