! TOUCHSTONE file generated by CST MICROWAVE STUDIO
! Date and time: Mon Dec  2 04:50:23 2024
! Project name: test_tuning.cst
! Parameters = {airCoaxOuterDiameter=3; chamferAngle=45; chamferWidth=24; connectorLength=10; drillingHoleDiameter=4.1; feedLength=60; flareDiameter=130; flareLength=70; gratingDistance=0; gratingGap=1.90274; outletLength=15; polarizerLength=134; probe1Diameter=1.3; probe1Distance=14; probe1Length=12; probe2Diameter=1.3; probe2Distance=0; probe2Length=12; probeLength=12; smaInnerDiameter=1.3; smaOuterDiameter=4.1; transitionCoefficient=1.33; waveguideFeedLength=30; waveguideSide=50; waveguideThickness=3; wireCount=25; wireDiameter=1.17699}
! Header version: 2024
! Port assignment regex: !\s*Touchstone port\s*([0-9]+)\s*=\s*(CST MWS port|CST DES external port|CST DES block port)\s*(.+)\s* \(\"(.*)\"\)(\s*mode\s*([0-9]+))?.*
! Touchstone port assignment:
! Touchstone port 1 = CST MWS port 1 ("Input1")
! Touchstone port 2 = CST MWS port 2 ("Input2")
# GHz S MA R 50
4.6                    0.2019201       -166.7785        0.6116856        62.67359        0.6116865        62.67376        0.2019192       -166.7792
4.6014                 0.2071638       -167.3894        0.6125691        61.88194          0.61257         61.8821        0.2071629         -167.39
4.6028                 0.2124251       -167.9842        0.6134421        61.08949        0.6134431        61.08965        0.2124241       -167.9849
4.6042                 0.2177179       -168.5642        0.6143122        60.29584        0.6143134        60.29598        0.2177168       -168.5648
4.6056                 0.2230565       -169.1308        0.6151865        59.50042        0.6151876        59.50056        0.2230553       -169.1314
4.607                  0.2284548       -169.6862        0.6160709         58.7026        0.6160721        58.70274        0.2284536       -169.6867
4.6084                 0.2339267       -170.2328        0.6169709        57.90166        0.6169723        57.90178        0.2339255       -170.2333
4.6098                  0.239485       -170.7735        0.6178909        57.09678        0.6178923        57.09689        0.2394836        -170.774
4.6112                 0.2451413       -171.3114        0.6188343        56.28709        0.6188357         56.2872        0.2451399       -171.3118
4.6126                 0.2509059       -171.8498        0.6198032        55.47165        0.6198046        55.47175        0.2509045       -171.8502
4.614                  0.2567872       -172.3921        0.6207985         54.6495        0.6207999         54.6496        0.2567858       -172.3924
4.6154                 0.2627917       -172.9418        0.6218197        53.81964        0.6218211        53.81974        0.2627903       -172.9421
4.6168                 0.2689236       -173.5023        0.6228649        52.98108        0.6228664        52.98115        0.2689222       -173.5026
4.6182                 0.2751846       -174.0768        0.6239313        52.13279        0.6239328        52.13286        0.2751832       -174.0771
4.6196                 0.2815741       -174.6686        0.6250143         51.2738        0.6250158        51.27387        0.2815728       -174.6689
4.621                  0.2880889       -175.2805        0.6261083        50.40317        0.6261097        50.40323        0.2880876       -175.2807
4.6224                  0.294723       -175.9149        0.6272059        49.52001        0.6272074        49.52006        0.2947218       -175.9151
4.6238                 0.3014683       -176.5742        0.6282991        48.62347        0.6283006        48.62352        0.3014671       -176.5743
4.6252                 0.3083139       -177.2601        0.6293787        47.71281        0.6293802        47.71285        0.3083128       -177.2602
4.6266                 0.3152471       -177.9741        0.6304342        46.78732        0.6304355        46.78736        0.3152461       -177.9743
4.628                  0.3222526       -178.7173        0.6314543        45.84644        0.6314557        45.84646        0.3222517       -178.7175
4.6294                 0.3293138       -179.4904        0.6324273        44.88965        0.6324286        44.88967        0.3293129       -179.4905
4.6308                  0.336412        179.7064        0.6333405        43.91656        0.6333418        43.91657        0.3364112        179.7064
4.6322                 0.3435273        178.8733        0.6341807        42.92689        0.6341821        42.92689        0.3435266        178.8732
4.6336                 0.3506388        178.0105        0.6349347        41.92045        0.6349359        41.92045        0.3506382        178.0105
4.635                  0.3577246         177.119        0.6355887        40.89715        0.6355899        40.89716        0.3577242        177.1189
4.6364                 0.3647625        176.1997        0.6361291        39.85703        0.6361303        39.85703        0.3647621        176.1996
4.6378                 0.3717295         175.254        0.6365422        38.80022        0.6365433        38.80022        0.3717293         175.254
4.6392                 0.3786032        174.2835        0.6368146        37.72693        0.6368156        37.72692         0.378603        174.2834
4.6406                  0.385361        173.2899        0.6369333        36.63748        0.6369343        36.63747        0.3853609        173.2899
4.642                  0.3919808        172.2753        0.6368856        35.53229        0.6368866        35.53228        0.3919809        172.2752
4.6434                 0.3984417        171.2417        0.6366595        34.41184        0.6366605        34.41182        0.3984418        171.2416
4.6448                 0.4047231        170.1914        0.6362434        33.27669        0.6362443        33.27667        0.4047232        170.1913
4.6462                  0.410806        169.1267        0.6356268         32.1275        0.6356276        32.12749        0.4108062        169.1266
4.6476                 0.4166726        168.0501        0.6347997        30.96496        0.6348006        30.96495        0.4166729        168.0501
4.649                  0.4223068        166.9642        0.6337531        29.78985         0.633754        29.78983        0.4223071        166.9641
4.6504                 0.4276939        165.8715        0.6324791        28.60298        0.6324798        28.60296        0.4276942        165.8714
4.6518                 0.4328214        164.7745        0.6309705        27.40521        0.6309712        27.40519        0.4328217        164.7744
4.6532                 0.4376786         163.676        0.6292214        26.19745         0.629222        26.19744         0.437679        163.6758
4.6546                 0.4422571        162.5784        0.6272266        24.98066        0.6272273        24.98064        0.4422575        162.5783
4.656                  0.4465505        161.4846        0.6249825         23.7558        0.6249831        23.75578        0.4465509        161.4845
4.6574                  0.450555         160.397        0.6224863        22.52388        0.6224869        22.52386        0.4505554        160.3969
4.6588                 0.4542691        159.3183        0.6197361        21.28592        0.6197368         21.2859        0.4542695        159.3182
4.6602                 0.4576937        158.2509        0.6167316        20.04295        0.6167321        20.04293         0.457694        158.2507
4.6616                 0.4608321        157.1972        0.6134731        18.79603        0.6134736        18.79602        0.4608324        157.1971
4.663                  0.4636903        156.1597        0.6099623        17.54622        0.6099627        17.54621        0.4636906        156.1596
4.6644                 0.4662767        155.1406        0.6062017        16.29458        0.6062022        16.29457         0.466277        155.1404
4.6658                 0.4686024         154.142        0.6021951        15.04218        0.6021955        15.04216        0.4686026        154.1419
4.6672                 0.4706805         153.166         0.597947        13.79006        0.5979474        13.79005        0.4706806        153.1659
4.6686                 0.4725267        152.2145        0.5934629        12.53929        0.5934633        12.53927        0.4725268        152.2143
4.67                   0.4741588         151.289        0.5887494        11.29089        0.5887498        11.29088        0.4741589        151.2889
4.6714                 0.4755969        150.3912        0.5838137         10.0459        0.5838141        10.04588        0.4755969         150.391
4.6728                 0.4768628        149.5221         0.578664        8.805308        0.5786644        8.805295        0.4768628         149.522
4.6742                 0.4779802         148.683        0.5733089        7.570103        0.5733092        7.570091        0.4779802        148.6828
4.6756                 0.4789741        147.8743        0.5677579        6.341237        0.5677582        6.341224        0.4789739        147.8742
4.677                  0.4798706        147.0967        0.5620209        5.119634        0.5620212        5.119621        0.4798705        147.0966
4.6784                 0.4806972        146.3502        0.5561085        3.906183        0.5561088         3.90617        0.4806969        146.3501
4.6798                 0.4814814        145.6346        0.5500315         2.70174        0.5500319        2.701727        0.4814811        145.6345
4.6812                 0.4822513        144.9492        0.5438013        1.507119        0.5438016        1.507106        0.4822509        144.9491
4.6826                 0.4830346        144.2932        0.5374293       0.3230948        0.5374296        0.323081        0.4830342        144.2931
4.684                  0.4838586        143.6652        0.5309271      -0.8496045        0.5309274      -0.8496188        0.4838582        143.6651
4.6854                 0.4847496        143.0635        0.5243066       -2.010296        0.5243068       -2.010311        0.4847492        143.0634
4.6868                 0.4857325        142.4861        0.5175794       -3.158344        0.5175797        -3.15836        0.4857319        142.4861
4.6882                 0.4868302        141.9306        0.5107574       -4.293162        0.5107577       -4.293178        0.4868298        141.9306
4.6896                 0.4880639        141.3944         0.503852       -5.414211        0.5038523       -5.414227        0.4880635        141.3944
4.691                   0.489452        140.8745        0.4968746       -6.521001        0.4968748       -6.521019        0.4894516        140.8745
4.6924                 0.4910101        140.3677        0.4898362        -7.61309        0.4898363       -7.613109        0.4910096        140.3677
4.6938                 0.4927506        139.8707        0.4827474       -8.690082        0.4827476       -8.690101        0.4927502        139.8707
4.6952                 0.4946828          139.38        0.4756187       -9.751623        0.4756188       -9.751642        0.4946824          139.38
4.6966                 0.4968124         138.892        0.4684598       -10.79742          0.46846       -10.79742         0.496812         138.892
4.698                  0.4991415        138.4034        0.4612802       -11.82715        0.4612803       -11.82717        0.4991411        138.4034
4.6994                 0.5016686        137.9105        0.4540887       -12.84059        0.4540887       -12.84062        0.5016683        137.9105
4.7008                 0.5043889        137.4101        0.4468935       -13.83752        0.4468936       -13.83755        0.5043887        137.4101
4.7022                  0.507294         136.899        0.4397027       -14.81774        0.4397028        -14.8178        0.5072939        136.8991
4.7036                 0.5103725        136.3744        0.4325235        -15.7811        0.4325235       -15.78113        0.5103723        136.3745
4.705                  0.5136095        135.8336        0.4253626       -16.72739        0.4253627       -16.72741        0.5136096        135.8336
4.7064                 0.5169881        135.2742        0.4182264        -17.6564        0.4182264        -17.6564        0.5169882        135.2743
4.7078                 0.5204885        134.6943        0.4111206       -18.56797        0.4111206         -18.568        0.5204886        134.6944
4.7092                 0.5240889        134.0922        0.4040509       -19.46192        0.4040508       -19.46195        0.5240892        134.0923
4.7106                 0.5277662        133.4666         0.397022       -20.33801         0.397022       -20.33803        0.5277666        133.4667
4.712                  0.5314957        132.8166        0.3900389       -21.19598        0.3900388         -21.196        0.5314962        132.8167
4.7134                 0.5352519        132.1416        0.3831059       -22.03557        0.3831058       -22.03558        0.5352524        132.1417
4.7148                 0.5390088        131.4413        0.3762273       -22.85644        0.3762273       -22.85645        0.5390094        131.4414
4.7162                 0.5427402        130.7158        0.3694073       -23.65824        0.3694072       -23.65824        0.5427409        130.7158
4.7176                   0.54642        129.9655          0.36265       -24.44056        0.3626499       -24.44056        0.5464207        129.9655
4.719                  0.5500227         129.191        0.3559594       -25.20296        0.3559593       -25.20296        0.5500235         129.191
4.7204                 0.5535236        128.3931        0.3493395       -25.94495        0.3493395       -25.94495        0.5535245        128.3932
4.7218                 0.5568993        127.5731        0.3427947       -26.66601        0.3427946       -26.66601        0.5569002        127.5732
4.7232                 0.5601273        126.7322        0.3363294       -27.36558        0.3363293       -27.36558        0.5601283        126.7323
4.7246                  0.563187        125.8719        0.3299481       -28.04309         0.329948       -28.04308        0.5631879        125.8719
4.726                  0.5660593        124.9938        0.3236556       -28.69794        0.3236555       -28.69792        0.5660604        124.9938
4.7274                 0.5687273        124.0996        0.3174571       -29.32955         0.317457       -29.32953        0.5687284        124.0997
4.7288                  0.571176        123.1913         0.311358       -29.93737        0.3113579       -29.93734        0.5711771        123.1913
4.7302                 0.5733923        122.2706        0.3053639       -30.52086        0.3053638       -30.52084        0.5733935        122.2706
4.7316                 0.5753659        121.3395        0.2994807       -31.07959        0.2994806       -31.07956        0.5753671        121.3395
4.733                  0.5770883           120.4        0.2937146       -31.61317        0.2937145       -31.61314        0.5770895           120.4
4.7344                 0.5785536        119.4542        0.2880719       -32.12138        0.2880718       -32.12135        0.5785548        119.4542
4.7358                 0.5797581         118.504        0.2825591       -32.60413         0.282559       -32.60408        0.5797593        118.5039
4.7372                 0.5807005        117.5513        0.2771827       -33.06149        0.2771827       -33.06144        0.5807017        117.5513
4.7386                 0.5813819        116.5981        0.2719491       -33.49379        0.2719491       -33.49375         0.581383        116.5981
4.74                   0.5818053        115.6463        0.2668645       -33.90159        0.2668646       -33.90153        0.5818064        115.6462
4.7414                 0.5819763        114.6976        0.2619351       -34.28571        0.2619351       -34.28566        0.5819773        114.6976
4.7428                 0.5819022        113.7538        0.2571663       -34.64732        0.2571664       -34.64726        0.5819031        113.7538
4.7442                 0.5815923        112.8165        0.2525631       -34.98787        0.2525632       -34.98782        0.5815933        112.8165
4.7456                 0.5810579        111.8872        0.2481299       -35.30921          0.24813       -35.30915        0.5810589        111.8872
4.747                  0.5803118        110.9673          0.24387        -35.6135        0.2438702       -35.61345        0.5803127        110.9672
4.7484                 0.5793683        110.0579        0.2397859        -35.9033        0.2397861       -35.90325         0.579369        110.0579
4.7498                 0.5782426        109.1602        0.2358788       -36.18152         0.235879       -36.18147        0.5782434        109.1601
4.7512                 0.5769516        108.2751        0.2321488       -36.45139         0.232149       -36.45134        0.5769523         108.275
4.7526                 0.5755125        107.4032        0.2285944       -36.71644        0.2285947        -36.7164        0.5755131        107.4032
4.754                  0.5739432        106.5453        0.2252129        -36.9805        0.2252132       -36.98046        0.5739438        106.5452
4.7554                 0.5722622        105.7015        0.2219999       -37.24757        0.2220002       -37.24755        0.5722628        105.7015
4.7568                 0.5704877        104.8721        0.2189496       -37.52185        0.2189498       -37.52184        0.5704883        104.8721
4.7582                 0.5686382         104.057        0.2160545       -37.80763        0.2160547       -37.80762        0.5686387         104.057
4.7596                 0.5667312        103.2561        0.2133058       -38.10918        0.2133061       -38.10916        0.5667317         103.256
4.761                  0.5647841        102.4688        0.2106932       -38.43075        0.2106935       -38.43075        0.5647843        102.4687
4.7624                 0.5628128        101.6944        0.2082053       -38.77648        0.2082056       -38.77648         0.562813        101.6944
4.7638                 0.5608324        100.9323        0.2058292       -39.15028        0.2058295       -39.15029        0.5608326        100.9323
4.7652                 0.5588568        100.1814        0.2035514       -39.55586        0.2035516       -39.55587        0.5588569        100.1813
4.7666                  0.556898        99.44051        0.2013572       -39.99658        0.2013575       -39.99661        0.5568982        99.44048
4.768                  0.5549666        98.70837        0.1992317       -40.47549        0.1992319       -40.47551        0.5549667        98.70834
4.7694                 0.5530711         97.9836        0.1971592       -40.99521        0.1971594       -40.99525        0.5530711        97.98354
4.7708                 0.5512181        97.26462         0.195124         -41.558        0.1951242       -41.55805         0.551218        97.26459
4.7722                 0.5494123         96.5499        0.1931105       -42.16566        0.1931107       -42.16571        0.5494122        96.54987
4.7736                 0.5476562        95.83783        0.1911031       -42.81959        0.1911033       -42.81965        0.5476561        95.83778
4.775                  0.5459504         95.1267        0.1890867       -43.52076        0.1890869       -43.52082        0.5459503        95.12668
4.7764                 0.5442934        94.41499        0.1870468       -44.26973        0.1870469       -44.26979        0.5442932        94.41496
4.7778                 0.5426817        93.70101        0.1849694       -45.06668        0.1849696       -45.06675        0.5426815        93.70101
4.7792                 0.5411103        92.98335        0.1828418       -45.91141        0.1828419       -45.91148        0.5411101        92.98335
4.7806                 0.5395721        92.26049        0.1806519       -46.80341        0.1806519       -46.80348        0.5395718        92.26049
4.782                  0.5380586        91.53118        0.1783887       -47.74183        0.1783888        -47.7419        0.5380583        91.53118
4.7834                 0.5365603        90.79426        0.1760427       -48.72557        0.1760428       -48.72564          0.53656        90.79426
4.7848                 0.5350662        90.04861        0.1736054       -49.75326        0.1736055       -49.75333        0.5350659        90.04861
4.7862                 0.5335646        89.29352        0.1710697       -50.82331        0.1710697       -50.82338        0.5335643        89.29352
4.7876                 0.5320432        88.52819        0.1684297       -51.93396        0.1684296       -51.93403        0.5320428        88.52819
4.789                  0.5304891        87.75216        0.1656809       -53.08327        0.1656809       -53.08334        0.5304887        87.75216
4.7904                 0.5288895        86.96512        0.1628203       -54.26916        0.1628203       -54.26923        0.5288891        86.96515
4.7918                 0.5272315        86.16698        0.1598463       -55.48946        0.1598462       -55.48952        0.5272312        86.16701
4.7932                 0.5255027        85.35775        0.1567582       -56.74186        0.1567582       -56.74191        0.5255023        85.35778
4.7946                  0.523691        84.53767        0.1535573         -58.024        0.1535572       -58.02406        0.5236906         84.5377
4.796                  0.5217853        83.70718        0.1502455       -59.33351        0.1502454       -59.33356        0.5217849        83.70721
4.7974                 0.5197752        82.86679        0.1468264       -60.66792        0.1468262       -60.66797        0.5197748        82.86682
4.7988                 0.5176516        82.01724        0.1433045       -62.02479        0.1433044       -62.02483        0.5176513        82.01727
4.8002                 0.5154067        81.15934        0.1396858       -63.40167        0.1396856       -63.40171        0.5154063        81.15938
4.8016                 0.5130339        80.29405        0.1359768       -64.79615        0.1359767        -64.7962        0.5130335        80.29409
4.803                  0.5105282        79.42243        0.1321855       -66.20592        0.1321854       -66.20595        0.5105279        79.42248
4.8044                 0.5078862        78.54559        0.1283204       -67.62866        0.1283203        -67.6287        0.5078858        78.54564
4.8058                 0.5051061        77.66472        0.1243911       -69.06227         0.124391        -69.0623        0.5051058        77.66478
4.8072                 0.5021878        76.78103        0.1204078       -70.50475        0.1204077       -70.50477        0.5021876        76.78109
4.8086                 0.4991331        75.89578        0.1163812       -71.95436        0.1163811       -71.95436        0.4991328        75.89584
4.81                    0.495945        75.01017        0.1123226       -73.40957        0.1123225       -73.40959        0.4959447        75.01024
4.8114                 0.4926282        74.12544        0.1082438       -74.86926        0.1082436       -74.86926         0.492628        74.12552
4.8128                 0.4891894        73.24275        0.1041566       -76.33271        0.1041564       -76.33271        0.4891891        73.24283
4.8142                 0.4856361        72.36317        0.1000732        -77.7997        0.1000731        -77.7997        0.4856358        72.36326
4.8156                 0.4819775        71.48771       0.09600568       -79.27072       0.09600557        -79.2707        0.4819773        71.48778
4.817                   0.478224        70.61724        0.0919661       -80.74702       0.09196599       -80.74699        0.4782237        70.61731
4.8184                 0.4743866        69.75247       0.08796623       -82.23083       0.08796613       -82.23079        0.4743865        69.75256
4.8198                 0.4704777        68.89402       0.08401748       -83.72559       0.08401738       -83.72555        0.4704775        68.89411
4.8212                 0.4665097        68.04227       0.08013079       -85.23612        0.0801307       -85.23608        0.4665094        68.04237
4.8226                 0.4624957        67.19742       0.07631648       -86.76898        0.0763164       -86.76893        0.4624955         67.1975
4.824                   0.458449        66.35945        0.0725842       -88.33272       0.07258413       -88.33267        0.4584488        66.35954
4.8254                 0.4543826         65.5281       0.06894285        -89.9383       0.06894279       -89.93826        0.4543825        65.52818
4.8268                 0.4503094        64.70286        0.0654005       -91.59954       0.06540045       -91.59948        0.4503093        64.70297
4.8282                 0.4462415        63.88302       0.06196446       -93.33347       0.06196442       -93.33342        0.4462413        63.88312
4.8296                 0.4421902        63.06757       0.05864133       -95.16103       0.05864129       -95.16096          0.44219        63.06768
4.831                  0.4381658        62.25527       0.05543716       -97.10748       0.05543713        -97.1074        0.4381656        62.25537
4.8324                 0.4341771        61.44461       0.05235773       -99.20316        0.0523577       -99.20309         0.434177         61.4447
4.8338                 0.4302317        60.63382       0.04940893        -101.484        0.0494089        -101.484        0.4302316        60.63394
4.8352                  0.426335        59.82101       0.04659732       -103.9923       0.04659731       -103.9922         0.426335        59.82111
4.8366                 0.4224911        59.00395       0.04393092       -106.7767        0.0439309       -106.7766        0.4224911        59.00406
4.838                  0.4187016        58.18034       0.04142006       -109.8927       0.04142005       -109.8926        0.4187016        58.18044
4.8394                 0.4149664        57.34766       0.03907868       -113.4016       0.03907866       -113.4015        0.4149664        57.34776
4.8408                 0.4112827        56.50332       0.03692552       -117.3686       0.03692551       -117.3685        0.4112827        56.50342
4.8422                  0.407646        55.64461       0.03498559       -121.8583       0.03498558       -121.8582         0.407646        55.64473
4.8436                 0.4040495        54.76882       0.03329126       -126.9271       0.03329124       -126.9271        0.4040495        54.76892
4.845                  0.4004842        53.87317       0.03188264       -132.6116       0.03188263       -132.6115        0.4004842        53.87327
4.8464                 0.3969391        52.95496        0.0308068       -138.9125       0.03080678       -138.9125        0.3969391        52.95506
4.8478                 0.3934014        52.01153       0.03011468        -145.779       0.03011466       -145.7789        0.3934015        52.01162
4.8492                 0.3898564        51.04031       0.02985592       -153.0971        0.0298559       -153.0971        0.3898566        51.04041
4.8506                 0.3862882        50.03888       0.03007189       -160.6941       0.03007187       -160.6941        0.3862883        50.03897
4.852                  0.3826792        49.00495       0.03078919       -168.3607       0.03078917       -168.3607        0.3826794        49.00503
4.8534                 0.3790111        47.93641        0.0320158       -175.8876       0.03201578       -175.8876        0.3790112        47.93649
4.8548                 0.3752644        46.83133       0.03374146        176.8987       0.03374144        176.8986        0.3752645        46.83142
4.8562                 0.3714193        45.68801       0.03594163        170.1138       0.03594161        170.1137        0.3714193        45.68809
4.8576                 0.3674556        44.50494       0.03858307        163.8129       0.03858305        163.8129        0.3674556        44.50502
4.859                  0.3633531        43.28081       0.04162907        158.0019       0.04162904        158.0019        0.3633532        43.28088
4.8604                 0.3590918        42.01454       0.04504316        152.6531       0.04504313        152.6531        0.3590919        42.01461
4.8618                 0.3546522        40.70525       0.04879114        147.7208       0.04879111        147.7207        0.3546522        40.70532
4.8632                 0.3500152        39.35224        0.0528419        143.1521       0.05284187         143.152        0.3500153         39.3523
4.8646                 0.3451632        37.95501       0.05716737        138.8942       0.05716735        138.8941        0.3451632        37.95507
4.866                  0.3400791        36.51321       0.06174214        134.8983       0.06174211        134.8982        0.3400791        36.51326
4.8674                 0.3347476        35.02666       0.06654292        131.1209       0.06654287        131.1209        0.3347476        35.02671
4.8688                 0.3291546        33.49528       0.07154796        127.5248       0.07154791        127.5247        0.3291545        33.49533
4.8702                 0.3232876        31.91912       0.07673664        124.0781       0.07673659         124.078        0.3232875        31.91916
4.8716                  0.317136        30.29831       0.08208905        120.7543         0.082089        120.7542        0.3171359        30.29834