! TOUCHSTONE file generated by CST MICROWAVE STUDIO
! Date and time: Mon Dec  2 05:46:49 2024
! Project name: test_tuning.cst
! Parameters = {airCoaxOuterDiameter=3; chamferAngle=45; chamferWidth=24; connectorLength=10; drillingHoleDiameter=4.1; feedLength=80; flareDiameter=130; flareLength=70; gratingDistance=0; gratingGap=1.90274; outletLength=30; polarizerLength=134; probe1Diameter=1.3; probe1Distance=14; probe1Length=12; probe2Diameter=1.3; probe2Distance=0; probe2Length=12; probeLength=12; smaInnerDiameter=1.3; smaOuterDiameter=4.1; transitionCoefficient=1.33; waveguideFeedLength=30; waveguideSide=50; waveguideThickness=3; wireCount=25; wireDiameter=1.17699}
! Header version: 2024
! Port assignment regex: !\s*Touchstone port\s*([0-9]+)\s*=\s*(CST MWS port|CST DES external port|CST DES block port)\s*(.+)\s* \(\"(.*)\"\)(\s*mode\s*([0-9]+))?.*
! Touchstone port assignment:
! Touchstone port 1 = CST MWS port 1 ("Input1")
! Touchstone port 2 = CST MWS port 2 ("Input2")
# GHz S MA R 50
4.6                    0.5332796        105.7822        0.2324055       -46.77812        0.2324058       -46.77815        0.5332806        105.7821
4.6014                 0.5353427        105.4527        0.2235228       -47.87072        0.2235231       -47.87078        0.5353436        105.4527
4.6028                 0.5376122        105.0784        0.2148778       -48.83709        0.2148781       -48.83719        0.5376131        105.0784
4.6042                 0.5400203        104.6566        0.2065358        -49.6748        0.2065361       -49.67493        0.5400209        104.6566
4.6056                 0.5424957        104.1862        0.1985533       -50.38487        0.1985535       -50.38504        0.5424963        104.1861
4.607                  0.5449673        103.6672        0.1909763       -50.97213        0.1909764       -50.97233        0.5449679        103.6672
4.6084                 0.5473658        103.1011        0.1838383       -51.44509        0.1838384       -51.44532        0.5473663        103.1011
4.6098                 0.5496252        102.4902        0.1771597       -51.81579        0.1771597       -51.81605        0.5496256        102.4901
4.6112                 0.5516851        101.8378        0.1709469       -52.09916        0.1709468       -52.09944        0.5516855        101.8378
4.6126                 0.5534919        101.1482         0.165193       -52.31221        0.1651928        -52.3125        0.5534922        101.1481
4.614                  0.5550002        100.4261        0.1598791        -52.4729        0.1598786        -52.4732        0.5550006        100.4261
4.6154                 0.5561738        99.67686        0.1549758       -52.59897        0.1549752       -52.59926        0.5561742        99.67686
4.6168                 0.5569863        98.90603        0.1504463       -52.70675        0.1504456       -52.70703        0.5569866        98.90604
4.6182                 0.5574209         98.1193         0.146249       -52.81017        0.1462483       -52.81042        0.5574213        98.11933
4.6196                 0.5574716        97.32238        0.1423407       -52.92004        0.1423399       -52.92026         0.557472        97.32238
4.621                  0.5571413        96.52074        0.1386792       -53.04365        0.1386782       -53.04383        0.5571418        96.52076
4.6224                 0.5564426        95.71955        0.1352257       -53.18476        0.1352247       -53.18487        0.5564431        95.71955
4.6238                 0.5553962        94.92353        0.1319473       -53.34384        0.1319463        -53.3439        0.5553966        94.92353
4.6252                 0.5540293        94.13684        0.1288175       -53.51876        0.1288165       -53.51877        0.5540297        94.13685
4.6266                 0.5523752        93.36297        0.1258175       -53.70546        0.1258165       -53.70541        0.5523756        93.36297
4.628                  0.5504713        92.60465        0.1229356       -53.89888        0.1229347       -53.89878        0.5504718        92.60467
4.6294                 0.5483573        91.86388        0.1201669       -54.09388        0.1201661       -54.09375        0.5483578        91.86388
4.6308                 0.5460736        91.14178        0.1175124       -54.28614        0.1175117       -54.28598         0.546074         91.1418
4.6322                 0.5436598        90.43872        0.1149769       -54.47298        0.1149763       -54.47279        0.5436602        90.43874
4.6336                  0.541153        89.75428        0.1125678       -54.65397        0.1125673       -54.65377        0.5411534        89.75429
4.635                  0.5385863        89.08733        0.1102933       -54.83136        0.1102929       -54.83116        0.5385866        89.08734
4.6364                 0.5359878        88.43621        0.1081604       -55.01026          0.10816       -55.01008        0.5359881        88.43621
4.6378                 0.5333796        87.79873        0.1061734       -55.19846        0.1061731       -55.19829          0.53338        87.79874
4.6392                 0.5307776        87.17246        0.1043329       -55.40601        0.1043326       -55.40585        0.5307779        87.17248
4.6406                 0.5281904        86.55475        0.1026344       -55.64448        0.1026341       -55.64435        0.5281907        86.55478
4.642                  0.5256207        85.94301        0.1010686       -55.92612        0.1010683       -55.92604         0.525621        85.94303
4.6434                  0.523065        85.33482       0.09962132       -56.26284       0.09962105       -56.26278        0.5230654        85.33485
4.6448                 0.5205146        84.72804       0.09827406        -56.6652       0.09827377       -56.66516         0.520515        84.72807
4.6462                 0.5179569        84.12097       0.09700516       -57.14165       0.09700482       -57.14162        0.5179573        84.12101
4.6476                 0.5153765        83.51244       0.09579102       -57.69773       0.09579063       -57.69773         0.515377        83.51248
4.649                  0.5127565        82.90183       0.09460765       -58.33598        0.0946072       -58.33596         0.512757        82.90185
4.6504                   0.51008        82.28909       0.09343198       -59.05533       0.09343147        -59.0553        0.5100806        82.28911
4.6518                 0.5073311        81.67477       0.09224332       -59.85171       0.09224277       -59.85163        0.5073317        81.67478
4.6532                 0.5044967        81.05988       0.09102442       -60.71789       0.09102384        -60.7178        0.5044973        81.05989
4.6546                 0.5015667         80.4459       0.08976239       -61.64433       0.08976178       -61.64417        0.5015673         80.4459
4.656                  0.4985353        79.83463       0.08844929       -62.61933       0.08844867       -62.61914         0.498536        79.83462
4.6574                 0.4954013        79.22805       0.08708252       -63.63009       0.08708189       -63.62987        0.4954019        79.22804
4.6588                  0.492168        78.62828       0.08566469       -64.66305       0.08566409       -64.66278        0.4921687        78.62825
4.6602                 0.4888436         78.0373       0.08420358       -65.70477       0.08420301       -65.70447        0.4888442        78.03727
4.6616                 0.4854402        77.45695       0.08271143       -66.74268       0.08271089       -66.74232        0.4854408        77.45692
4.663                  0.4819734        76.88876       0.08120434       -67.76569       0.08120386        -67.7653        0.4819738        76.88872
4.6644                 0.4784615        76.33382       0.07970126       -68.76504       0.07970085       -68.76463         0.478462        76.33379
4.6658                 0.4749244        75.79275       0.07822294         -69.735       0.07822259       -69.73456        0.4749248        75.79269
4.6672                 0.4713824        75.26559       0.07679063       -70.67323       0.07679035       -70.67277        0.4713827        75.26553
4.6686                 0.4678549        74.75187       0.07542486       -71.58138       0.07542463       -71.58091        0.4678551        74.75181
4.67                   0.4643596        74.25051       0.07414411       -72.46515       0.07414396       -72.46474        0.4643597        74.25047
4.6714                  0.460911           73.76       0.07296372       -73.33423       0.07296361       -73.33379        0.4609111        73.75996
4.6728                 0.4575202        73.27839       0.07189481       -74.20154       0.07189473       -74.20113        0.4575202        73.27833
4.6742                 0.4541939        72.80338       0.07094365        -75.0828        0.0709436       -75.08245        0.4541938        72.80334
4.6756                 0.4509337        72.33261        0.0701113       -75.99508       0.07011128       -75.99479        0.4509335        72.33258
4.677                   0.447737        71.86363       0.06939371       -76.95575       0.06939368       -76.95545        0.4477367         71.8636
4.6784                 0.4445964        71.39414       0.06878204       -77.98096       0.06878199       -77.98071        0.4445961        71.39412
4.6798                 0.4415009        70.92213       0.06826349       -79.08459       0.06826342       -79.08437        0.4415006        70.92212
4.6812                 0.4384361        70.44596       0.06782232       -80.27727       0.06782222       -80.27705        0.4384358        70.44596
4.6826                 0.4353855        69.96452         0.067441        -81.5656       0.06744085       -81.56541        0.4353853        69.96453
4.684                  0.4323318        69.47724       0.06710138       -82.95201       0.06710121       -82.95182        0.4323315        69.47725
4.6854                 0.4292572        68.98415       0.06678593       -84.43454       0.06678571       -84.43437        0.4292569        68.98415
4.6868                 0.4261456        68.48584       0.06647871        -86.0074       0.06647845       -86.00721        0.4261453        68.48587
4.6882                 0.4229829         67.9835       0.06616623       -87.66115       0.06616593       -87.66093        0.4229826        67.98353
4.6896                 0.4197581        67.47874       0.06583819       -89.38341       0.06583786       -89.38319        0.4197578        67.47877
4.691                  0.4164638        66.97361       0.06548788        -91.1596       0.06548753       -91.15935        0.4164636        66.97364
4.6924                 0.4130971        66.47031       0.06511249       -92.97355       0.06511213       -92.97328        0.4130969        66.47034
4.6938                 0.4096593        65.97122       0.06471321        -94.8083       0.06471285         -94.808        0.4096591        65.97125
4.6952                  0.406156        65.47867       0.06429513       -96.64685       0.06429477        -96.6465        0.4061559         65.4787
4.6966                 0.4025968        64.99476       0.06386699       -98.47277       0.06386665       -98.47236        0.4025966        64.99479
4.698                  0.3989946        64.52134       0.06344089       -100.2711       0.06344056       -100.2707        0.3989944        64.52136
4.6994                 0.3953646        64.05975       0.06303165       -102.0291       0.06303134       -102.0286        0.3953645        64.05978
4.7008                  0.391724        63.61082       0.06265623       -103.7368       0.06265595       -103.7364        0.3917238        63.61085
4.7022                 0.3880901        63.17473       0.06233293       -105.3878       0.06233269       -105.3873        0.3880899        63.17476
4.7036                 0.3844798        62.75105       0.06208051       -106.9795       0.06208031        -106.979        0.3844796        62.75107
4.705                  0.3809081        62.33872       0.06191721       -108.5136       0.06191704       -108.5131        0.3809078        62.33875
4.7064                 0.3773874        61.93607       0.06185982        -109.996       0.06185967       -109.9956        0.3773871         61.9361
4.7078                 0.3739264        61.54098       0.06192266       -111.4363       0.06192253       -111.4359        0.3739261        61.54102
4.7092                 0.3705298        61.15097       0.06211682       -112.8474        0.0621167        -112.847        0.3705295        61.15101
4.7106                  0.367198        60.76334       0.06244946       -114.2441       0.06244934       -114.2438        0.3671976        60.76337
4.712                  0.3639263        60.37535        0.0629234       -115.6422       0.06292328       -115.6419         0.363926        60.37538
4.7134                 0.3607065        59.98449         0.063537       -117.0569       0.06353685       -117.0566        0.3607061        59.98455
4.7148                 0.3575261        59.58851       0.06428433       -118.5018       0.06428417       -118.5016        0.3575257         59.5886
4.7162                 0.3543698        59.18569       0.06515567       -119.9878       0.06515549       -119.9876        0.3543694        59.18574
4.7176                 0.3512203        58.77489       0.06613811       -121.5222       0.06613788        -121.522          0.35122        58.77495
4.719                  0.3480595         58.3556       0.06721641       -123.1083       0.06721614       -123.1081        0.3480592        58.35572
4.7204                 0.3448691        57.92826       0.06837404       -124.7459       0.06837373       -124.7456        0.3448689        57.92832
4.7218                 0.3416326        57.49376       0.06959401       -126.4305       0.06959368       -126.4302        0.3416323        57.49387
4.7232                 0.3383353        57.05395       0.07085998       -128.1547       0.07085961       -128.1544        0.3383351        57.05401
4.7246                  0.334966        56.61112       0.07215698       -129.9085       0.07215658       -129.9082        0.3349658        56.61118
4.726                  0.3315173         56.1681       0.07347231       -131.6796       0.07347191       -131.6793        0.3315172        56.16819
4.7274                  0.327986        55.72811       0.07479622       -133.4547        0.0747958       -133.4544        0.3279859         55.7282
4.7288                 0.3243736        55.29451       0.07612235       -135.2199       0.07612193       -135.2196        0.3243734        55.29456
4.7302                 0.3206854        54.87062       0.07744821       -136.9614       0.07744782        -136.961        0.3206853        54.87071
4.7316                 0.3169313        54.45963       0.07877539       -138.6661       0.07877502       -138.6657        0.3169312        54.45975
4.733                  0.3131242        54.06441       0.08010962       -140.3225       0.08010929        -140.322        0.3131241        54.06449
4.7344                 0.3092797         53.6872       0.08146058       -141.9209       0.08146031       -141.9205        0.3092796        53.68729
4.7358                  0.305415        53.32969       0.08284166       -143.4545       0.08284143        -143.454        0.3054149         53.3298
4.7372                 0.3015476        52.99285       0.08426929       -144.9189       0.08426913       -144.9184        0.3015474         52.9929
4.7386                 0.2976946        52.67676       0.08576228       -146.3133       0.08576218       -146.3128        0.2976944        52.67682
4.74                    0.293871        52.38085       0.08734081       -147.6402       0.08734076       -147.6398        0.2938708        52.38093
4.7414                 0.2900895        52.10385       0.08902537       -148.9054       0.08902541       -148.9049        0.2900892        52.10394
4.7428                 0.2863588        51.84389       0.09083563       -150.1176       0.09083572       -150.1172        0.2863585        51.84398
4.7442                  0.282684        51.59876       0.09278918       -151.2882       0.09278933       -151.2878        0.2826837        51.59882
4.7456                 0.2790656        51.36596       0.09490046       -152.4302       0.09490065       -152.4299        0.2790654        51.36608
4.747                     0.2755        51.14329       0.09717989       -153.5579        0.0971801       -153.5576        0.2754997        51.14338
4.7484                 0.2719797        50.92869       0.09963317       -154.6853       0.09963339       -154.6851        0.2719795        50.92881
4.7498                 0.2684941        50.72074        0.1022609        -155.826        0.1022611       -155.8258        0.2684938        50.72086
4.7512                 0.2650303        50.51883        0.1050586       -156.9917        0.1050588       -156.9915        0.2650301        50.51895
4.7526                 0.2615747        50.32335         0.108017       -158.1922        0.1080172        -158.192        0.2615745        50.32347
4.754                  0.2581137        50.13577        0.1111226       -159.4345        0.1111228       -159.4344        0.2581135        50.13592
4.7554                 0.2546356        49.95869        0.1143584       -160.7231        0.1143585       -160.7231        0.2546354        49.95881
4.7568                 0.2511316        49.79588        0.1177051       -162.0599        0.1177052       -162.0598        0.2511315        49.79602
4.7582                 0.2475971        49.65208        0.1211418        -163.444        0.1211419       -163.4439        0.2475969        49.65223
4.7596                 0.2440326        49.53298        0.1246475       -164.8727        0.1246475       -164.8726        0.2440325        49.53312
4.761                  0.2404448        49.44479        0.1282015       -166.3413        0.1282014       -166.3413        0.2404447        49.44493
4.7624                 0.2368464        49.39405        0.1317849       -167.8441        0.1317848       -167.8441        0.2368463        49.39419
4.7638                 0.2332569         49.3872        0.1353811       -169.3743         0.135381       -169.3743        0.2332568        49.38732
4.7652                 0.2297016        49.43015        0.1389763       -170.9249        0.1389762       -170.9249        0.2297015        49.43028
4.7666                 0.2262115        49.52783        0.1425603       -172.4888        0.1425602       -172.4887        0.2262114        49.52795
4.768                  0.2228216        49.68371        0.1461262       -174.0591        0.1461261        -174.059        0.2228215        49.68383
4.7694                 0.2195699        49.89931        0.1496709         -175.63        0.1496708       -175.6299        0.2195698        49.89943
4.7708                 0.2164953        50.17388        0.1531946       -177.1961        0.1531944        -177.196        0.2164952          50.174
4.7722                 0.2136356          50.504        0.1567005       -178.7536        0.1567004       -178.7534        0.2136355        50.50412
4.7736                 0.2110252        50.88356        0.1601943        179.7006        0.1601942        179.7007        0.2110251        50.88369
4.775                  0.2086935        51.30371        0.1636834        178.1678        0.1636833         178.168        0.2086934        51.30384
4.7764                 0.2066623        51.75322        0.1671761        176.6485        0.1671761        176.6486        0.2066622        51.75337
4.7778                 0.2049447        52.21893        0.1706807        175.1417        0.1706807        175.1418        0.2049446        52.21907
4.7792                 0.2035439        52.68641        0.1742046        173.6455        0.1742046        173.6456        0.2035438        52.68655
4.7806                 0.2024531        53.14079        0.1777534        172.1572        0.1777535        172.1573         0.202453        53.14094
4.782                  0.2016554        53.56764        0.1813301        170.6735        0.1813302        170.6736        0.2016553        53.56779
4.7834                 0.2011252        53.95374        0.1849347        169.1909        0.1849348        169.1909        0.2011251         53.9539
4.7848                 0.2008293        54.28779        0.1885635        167.7058        0.1885636        167.7058        0.2008293        54.28795
4.7862                 0.2007294        54.56093        0.1922091         166.215        0.1922091         166.215        0.2007294        54.56109
4.7876                 0.2007837        54.76699        0.1958603        164.7158        0.1958604        164.7159        0.2007837        54.76714
4.789                  0.2009498        54.90254        0.1995029        163.2065        0.1995029        163.2065        0.2009497         54.9027
4.7904                 0.2011861        54.96686        0.2031195        161.6861        0.2031195        161.6861        0.2011861        54.96701
4.7918                 0.2014543        54.96151        0.2066909        160.1547        0.2066908        160.1547        0.2014543        54.96165
4.7932                 0.2017208        54.88996        0.2101966        158.6136        0.2101965        158.6136        0.2017208         54.8901
4.7946                 0.2019575        54.75714        0.2136162        157.0653        0.2136161        157.0653        0.2019575        54.75728
4.796                   0.202143         54.5689        0.2169301        155.5131        0.2169299        155.5131         0.202143        54.56902
4.7974                 0.2022623        54.33144        0.2201207        153.9614        0.2201205        153.9614        0.2022623        54.33156
4.7988                  0.202307        54.05096        0.2231737        152.4151        0.2231734        152.4151         0.202307        54.05108
4.8002                 0.2022745        53.73309        0.2260785        150.8798        0.2260782        150.8799        0.2022745        53.73319
4.8016                 0.2021674        53.38261        0.2288296        149.3615        0.2288293        149.3616        0.2021674        53.38271
4.803                  0.2019918        53.00319        0.2314267        147.8661        0.2314264        147.8661        0.2019918        53.00328
4.8044                 0.2017565        52.59709        0.2338753        146.3993         0.233875        146.3994        0.2017564        52.59718
4.8058                 0.2014712        52.16519        0.2361869        144.9666        0.2361865        144.9666        0.2014711        52.16528
4.8072                 0.2011452        51.70694        0.2383784        143.5723        0.2383781        143.5724        0.2011451        51.70703
4.8086                 0.2007859        51.22047        0.2404721        142.2202        0.2404718        142.2203        0.2007858        51.22057
4.81                   0.2003979        50.70283        0.2424946        140.9127        0.2424943        140.9127        0.2003978        50.70292
4.8114                 0.1999816        50.15023        0.2444759        139.6506        0.2444757        139.6507        0.1999815        50.15032
4.8128                 0.1995331        49.55842        0.2464482        138.4336         0.246448        138.4337        0.1995329        49.55853
4.8142                 0.1990436        48.92304         0.248444        137.2595        0.2484438        137.2596        0.1990434        48.92315
4.8156                 0.1984997        48.23999        0.2504949        136.1247        0.2504947        136.1248        0.1984995         48.2401
4.817                  0.1978839        47.50582        0.2526298         135.024        0.2526298        135.0241        0.1978837        47.50594
4.8184                 0.1971754        46.71798        0.2548735        133.9513        0.2548735        133.9514        0.1971752        46.71811
4.8198                 0.1963512        45.87506        0.2572452        132.8992        0.2572452        132.8993        0.1963509         45.8752
4.8212                  0.195387        44.97698        0.2597573        131.8601        0.2597572        131.8602        0.1953868        44.97711
4.8226                 0.1942593        44.02498        0.2624148         130.826        0.2624149        130.8261         0.194259        44.02513
4.824                  0.1929456        43.02169        0.2652157        129.7895        0.2652158        129.7895        0.1929454        43.02183
4.8254                 0.1914269        41.97096        0.2681502        128.7435        0.2681503        128.7436        0.1914266         41.9711
4.8268                 0.1896877        40.87772        0.2712021        127.6824        0.2712022        127.6825        0.1896874        40.87786
4.8282                 0.1877174        39.74777        0.2743497        126.6017        0.2743498        126.6017        0.1877171        39.74791
4.8296                 0.1855109        38.58749        0.2775674        125.4982        0.2775674        125.4983        0.1855107        38.58763
4.831                  0.1830689         37.4035        0.2808271        124.3707        0.2808272        124.3708        0.1830686        37.40364
4.8324                 0.1803977        36.20235        0.2841006        123.2192        0.2841006        123.2192        0.1803974        36.20248
4.8338                 0.1775091        34.99009        0.2873608        122.0452        0.2873608        122.0453        0.1775088        34.99023
4.8352                 0.1744195        33.77192         0.290584        120.8514         0.290584        120.8515        0.1744192        33.77206
4.8366                 0.1711492        32.55173        0.2937514        119.6417        0.2937514        119.6417        0.1711489        32.55186
4.838                  0.1677208         31.3317        0.2968501        118.4201        0.2968501        118.4201        0.1677205        31.33183
4.8394                  0.164158        30.11195        0.2998747        117.1912        0.2998746        117.1913        0.1641577        30.11209
4.8408                 0.1604837        28.89017        0.3028272        115.9597        0.3028272        115.9597        0.1604833        28.89031
4.8422                 0.1567181        27.66142        0.3057177        114.7292        0.3057177        114.7293        0.1567177        27.66156
4.8436                 0.1528772        26.41791        0.3085637        113.5031        0.3085637        113.5032        0.1528768        26.41806
4.845                  0.1489711        25.14905        0.3113893        112.2834        0.3113893        112.2834        0.1489707         25.1492
4.8464                 0.1450026        23.84153         0.314224        111.0704        0.3142241        111.0705        0.1450021        23.84169
4.8478                  0.140966         22.4796        0.3171009        109.8632        0.3171009        109.8632        0.1409656        22.47977
4.8492                 0.1368472        21.04543         0.320054        108.6588         0.320054        108.6588        0.1368468         21.0456
4.8506                  0.132623        19.51952        0.3231165        107.4524        0.3231166        107.4524        0.1326226         19.5197
4.852                  0.1282622        17.88115        0.3263176        106.2375        0.3263178        106.2376        0.1282618        17.88134
4.8534                 0.1237269        16.10867        0.3296802        105.0063        0.3296804        105.0063        0.1237265        16.10885
4.8548                 0.1189735        14.17958         0.333218        103.7494        0.3332182        103.7494        0.1189731        14.17977
4.8562                 0.1139558        12.07035        0.3369336        102.4568        0.3369338        102.4569        0.1139553        12.07054
4.8576                 0.1086261         9.75564        0.3408171        101.1183        0.3408174        101.1183        0.1086257        9.755825
4.859                  0.1029391         7.20693        0.3448446        99.72352        0.3448449        99.72356        0.1029387        7.207114
4.8604                0.09685324        4.390053         0.348978        98.26312        0.3489783        98.26315       0.09685283        4.390228
4.8618                0.09033449          1.2611        0.3531655        96.72864        0.3531657        96.72868       0.09033406        1.261266
4.8632                0.08335891        -2.24039        0.3573423        95.11314        0.3573426        95.11317       0.08335848        -2.24024
4.8646                0.07591664       -6.203217        0.3614326        93.41141        0.3614329        93.41143       0.07591621       -6.203087
4.866                  0.0680173       -10.76577        0.3653515        91.62006        0.3653517        91.62009       0.06801684       -10.76568
4.8674                0.05969926       -16.15679         0.369007        89.73771        0.3690073        89.73773       0.05969879       -16.15674
4.8688                0.05104838       -22.77854        0.3723034         87.7648        0.3723037        87.76482        0.0510479       -22.77856
4.8702                0.04224084       -31.38754        0.3751435        85.70362        0.3751436        85.70362       0.04224036        -31.3877
4.8716                0.03365286       -43.49419         0.377431        83.55807        0.3774311        83.55807       0.03365241       -43.49457