! TOUCHSTONE file generated by CST MICROWAVE STUDIO
! Date and time: Mon Dec  2 05:46:48 2024
! Project name: test_tuning.cst
! Parameters = {airCoaxOuterDiameter=3; chamferAngle=45; chamferWidth=24; connectorLength=10; drillingHoleDiameter=4.1; feedLength=70; flareDiameter=130; flareLength=70; gratingDistance=0; gratingGap=1.90274; outletLength=30; polarizerLength=134; probe1Diameter=1.3; probe1Distance=14; probe1Length=12; probe2Diameter=1.3; probe2Distance=0; probe2Length=12; probeLength=12; smaInnerDiameter=1.3; smaOuterDiameter=4.1; transitionCoefficient=1.33; waveguideFeedLength=30; waveguideSide=50; waveguideThickness=3; wireCount=25; wireDiameter=1.17699}
! Header version: 2024
! Port assignment regex: !\s*Touchstone port\s*([0-9]+)\s*=\s*(CST MWS port|CST DES external port|CST DES block port)\s*(.+)\s* \(\"(.*)\"\)(\s*mode\s*([0-9]+))?.*
! Touchstone port assignment:
! Touchstone port 1 = CST MWS port 1 ("Input1")
! Touchstone port 2 = CST MWS port 2 ("Input2")
# GHz S MA R 50
4.6                    0.5384165         139.509        0.5468626        11.74446        0.5468626        11.74446        0.5384169         139.509
4.6014                 0.5399005        138.6706        0.5402792        10.40645        0.5402792        10.40645         0.539901        138.6707
4.6028                 0.5413039        137.8556         0.533427        9.065462         0.533427         9.06546        0.5413044        137.8557
4.6042                  0.542646        137.0633         0.526292        7.724271         0.526292        7.724269        0.5426465        137.0634
4.6056                 0.5439465        136.2931        0.5188648        6.386181        0.5188649        6.386178        0.5439471        136.2931
4.607                  0.5452255         135.544        0.5111416        5.054987        0.5111416        5.054982        0.5452259         135.544
4.6084                 0.5465026        134.8151        0.5031237        3.734919        0.5031238        3.734913        0.5465031        134.8151
4.6098                 0.5477972        134.1049        0.4948189        2.430589        0.4948191        2.430582        0.5477978        134.1049
4.6112                 0.5491289        133.4122        0.4862411        1.146914        0.4862412        1.146906        0.5491294        133.4122
4.6126                 0.5505155        132.7352        0.4774104      -0.1109521        0.4774105      -0.1109622        0.5505159        132.7352
4.614                  0.5519742        132.0719        0.4683526       -1.337711        0.4683527       -1.337723        0.5519747        132.0719
4.6154                 0.5535204        131.4202        0.4590995        -2.52801        0.4590995       -2.528024        0.5535208        131.4202
4.6168                 0.5551674        130.7777        0.4496878       -3.676549        0.4496879       -3.676565        0.5551678        130.7777
4.6182                  0.556926        130.1418        0.4401592       -4.778195        0.4401593       -4.778212        0.5569264        130.1418
4.6196                 0.5588045        129.5099        0.4305588       -5.828103        0.4305589       -5.828122        0.5588048        129.5099
4.621                  0.5608075         128.879        0.4209349       -6.821851        0.4209351        -6.82187        0.5608078         128.879
4.6224                 0.5629362        128.2464        0.4113378       -7.755573        0.4113379       -7.755593        0.5629364        128.2464
4.6238                 0.5651878        127.6089        0.4018184       -8.626107        0.4018185       -8.626129         0.565188        127.6089
4.6252                 0.5675559         126.964        0.3924277       -9.431124        0.3924277       -9.431149        0.5675561         126.964
4.6266                 0.5700296        126.3087        0.3832149       -10.16926         0.383215       -10.16929        0.5700298        126.3087
4.628                  0.5725945        125.6406        0.3742268       -10.84024        0.3742268       -10.84026        0.5725947        125.6406
4.6294                 0.5752317        124.9573        0.3655062       -11.44492        0.3655062       -11.44495        0.5752319        124.9573
4.6308                 0.5779192        124.2568        0.3570908        -11.9854        0.3570908       -11.98542        0.5779195        124.2568
4.6322                 0.5806318        123.5375        0.3490127       -12.46495        0.3490127       -12.46498        0.5806321        123.5375
4.6336                 0.5833414        122.7981        0.3412967       -12.88802        0.3412967       -12.88805        0.5833417        122.7981
4.635                  0.5860178        122.0377        0.3339606       -13.26011        0.3339606       -13.26013        0.5860181        122.0377
4.6364                 0.5886295         121.256        0.3270142       -13.58756        0.3270142       -13.58759        0.5886298         121.256
4.6378                 0.5911439        120.4529        0.3204597       -13.87742        0.3204596       -13.87745        0.5911442        120.4529
4.6392                 0.5935286         119.629        0.3142914       -14.13709        0.3142913       -14.13712         0.593529         119.629
4.6406                 0.5957517        118.7852        0.3084968       -14.37413        0.3084967       -14.37415        0.5957521        118.7852
4.642                   0.597783        117.9227         0.303057       -14.59587        0.3030569       -14.59589        0.5977834        117.9227
4.6434                 0.5995942        117.0433         0.297948       -14.80924        0.2979479       -14.80925        0.5995946        117.0433
4.6448                 0.6011599         116.149        0.2931417       -15.02042        0.2931416       -15.02043        0.6011603         116.149
4.6462                 0.6024581        115.2421        0.2886073       -15.23471        0.2886072       -15.23472        0.6024583        115.2421
4.6476                 0.6034704        114.3252        0.2843127       -15.45636        0.2843127       -15.45637        0.6034708        114.3252
4.649                  0.6041834        113.4009        0.2802256       -15.68852        0.2802256       -15.68852        0.6041837        113.4009
4.6504                 0.6045878        112.4723        0.2763151       -15.93316         0.276315       -15.93316        0.6045881        112.4723
4.6518                 0.6046796        111.5422        0.2725519       -16.19118        0.2725519       -16.19118        0.6046798        111.5422
4.6532                 0.6044592        110.6136        0.2689105       -16.46249        0.2689104       -16.46249        0.6044593        110.6135
4.6546                 0.6039326        109.6893        0.2653683       -16.74613        0.2653683       -16.74612        0.6039327        109.6893
4.656                  0.6031101        108.7722        0.2619075       -17.04043        0.2619074       -17.04042        0.6031102        108.7722
4.6574                 0.6020069        107.8649         0.258514       -17.34325        0.2585141       -17.34324        0.6020069        107.8649
4.6588                  0.600642        106.9697        0.2551786       -17.65213        0.2551786       -17.65211        0.6006418        106.9697
4.6602                  0.599038        106.0888        0.2518956       -17.96449        0.2518956       -17.96448        0.5990379        106.0888
4.6616                 0.5972205        105.2238        0.2486633       -18.27787        0.2486634       -18.27786        0.5972203        105.2238
4.663                  0.5952177        104.3761        0.2454831       -18.59005        0.2454832       -18.59004        0.5952174        104.3761
4.6644                 0.5930587        103.5468         0.242359       -18.89925        0.2423591       -18.89924        0.5930585        103.5468
4.6658                 0.5907738        102.7362        0.2392965       -19.20421        0.2392967        -19.2042        0.5907735        102.7362
4.6672                 0.5883928        101.9444        0.2363025       -19.50432        0.2363027       -19.50432        0.5883925        101.9444
4.6686                 0.5859445        101.1711        0.2333839       -19.79966        0.2333841       -19.79967        0.5859442        101.1711
4.67                   0.5834559        100.4154        0.2305472       -20.09099        0.2305475       -20.09101        0.5834556        100.4155
4.6714                 0.5809512        99.67614        0.2277978       -20.37974         0.227798       -20.37976        0.5809508        99.67617
4.6728                 0.5784514        98.95165        0.2251391       -20.66794        0.2251393       -20.66797        0.5784511        98.95168
4.6742                 0.5759737        98.24007        0.2225727       -20.95808        0.2225729       -20.95812        0.5759733         98.2401
4.6756                 0.5735309        97.53925        0.2200975       -21.25298        0.2200977       -21.25303        0.5735306        97.53931
4.677                  0.5711312        96.84696        0.2177098       -21.55565        0.2177101       -21.55571         0.571131          96.847
4.6784                 0.5687785        96.16081        0.2154036       -21.86907        0.2154039       -21.86914        0.5687783        96.16087
4.6798                 0.5664716        95.47851        0.2131703       -22.19604        0.2131705       -22.19612        0.5664715        95.47857
4.6812                 0.5642056        94.79785        0.2109993       -22.53899        0.2109995       -22.53908        0.5642055        94.79791
4.6826                 0.5619713        94.11677        0.2088785       -22.89983        0.2088787       -22.89994        0.5619713        94.11683
4.684                  0.5597564        93.43355        0.2067947       -23.27989        0.2067948          -23.28        0.5597564        93.43361
4.6854                 0.5575457        92.74673        0.2047343       -23.67975        0.2047344       -23.67984        0.5575458        92.74678
4.6868                 0.5553225        92.05524         0.202684       -24.09918         0.202684       -24.09928        0.5553226        92.05529
4.6882                 0.5530684         91.3584         0.200631       -24.53722         0.200631       -24.53738        0.5530687        91.35845
4.6896                 0.5507654        90.65594        0.1985642       -24.99221        0.1985642       -24.99237        0.5507656        90.65599
4.691                  0.5483954        89.94801        0.1964741       -25.46174        0.1964741       -25.46187        0.5483956        89.94805
4.6924                 0.5459418        89.23517        0.1943537       -25.94276        0.1943536       -25.94293        0.5459421        89.23521
4.6938                 0.5433901         88.5183        0.1921985       -26.43188        0.1921983       -26.43202        0.5433904        88.51834
4.6952                 0.5407284        87.79862        0.1900067       -26.92521        0.1900065       -26.92535        0.5407287        87.79866
4.6966                 0.5379476        87.07764        0.1877796       -27.41882        0.1877794       -27.41893        0.5379478        87.07767
4.698                   0.535042        86.35703        0.1855212       -27.90863        0.1855209       -27.90877        0.5350423        86.35706
4.6994                 0.5320102         85.6386        0.1832382       -28.39088        0.1832379       -28.39099        0.5320104        85.63862
4.7008                 0.5288536        84.92423        0.1809396       -28.86205        0.1809393       -28.86219        0.5288537        84.92426
4.7022                 0.5255779        84.21578        0.1786366        -29.3192        0.1786363       -29.31928         0.525578        84.21581
4.7036                  0.522192        83.51499        0.1763419          -29.76        0.1763416       -29.76012        0.5221921        83.51502
4.705                  0.5187079        82.82347        0.1740691       -30.18301        0.1740687       -30.18309         0.518708        82.82348
4.7064                 0.5151405        82.14253         0.171832       -30.58771        0.1718316       -30.58777        0.5151404        82.14256
4.7078                 0.5115063        81.47328        0.1696445       -30.97461        0.1696441       -30.97467        0.5115062        81.47331
4.7092                 0.5078235        80.81638        0.1675193       -31.34522        0.1675189       -31.34531        0.5078234         80.8164
4.7106                 0.5041111        80.17215        0.1654676       -31.70221        0.1654673       -31.70224         0.504111        80.17218
4.712                  0.5003879        79.54049        0.1634987       -32.04908        0.1634984       -32.04911        0.5003877        79.54052
4.7134                 0.4966717        78.92093        0.1616192       -32.39027        0.1616188        -32.3903        0.4966716        78.92096
4.7148                 0.4929792         78.3125        0.1598327       -32.73087        0.1598324       -32.73088         0.492979        78.31253
4.7162                 0.4893246        77.71393        0.1581401       -33.07639        0.1581398       -33.07639        0.4893244        77.71395
4.7176                 0.4857193        77.12349        0.1565387       -33.43256        0.1565384       -33.43255        0.4857191        77.12352
4.719                  0.4821715        76.53929        0.1550232       -33.80503        0.1550229       -33.80502        0.4821713        76.53931
4.7204                 0.4786858        75.95918        0.1535853       -34.19913        0.1535851       -34.19911        0.4786856         75.9592
4.7218                  0.475263        75.38088        0.1522145       -34.61959        0.1522143       -34.61958        0.4752628        75.38097
4.7232                 0.4719001         74.8022        0.1508983       -35.07038         0.150898       -35.07037        0.4718999        74.80226
4.7246                 0.4685903        74.22076         0.149623       -35.55452        0.1496228        -35.5545        0.4685901        74.22084
4.726                  0.4653235        73.63459        0.1483745       -36.07394        0.1483742       -36.07392        0.4653234         73.6347
4.7274                 0.4620867        73.04185        0.1471383       -36.62947        0.1471381       -36.62946        0.4620866        73.04194
4.7288                 0.4588644          72.441        0.1459009       -37.22085        0.1459007       -37.22084        0.4588643        72.44106
4.7302                 0.4556394        71.83093        0.1446498       -37.84671        0.1446497        -37.8467        0.4556393        71.83098
4.7316                 0.4523934        71.21089        0.1433745       -38.50473        0.1433744       -38.50473        0.4523933        71.21095
4.733                  0.4491076        70.58064        0.1420665       -39.19177        0.1420663       -39.19176        0.4491076         70.5807
4.7344                 0.4457641        69.94044        0.1407196       -39.90396        0.1407195       -39.90395        0.4457642         69.9405
4.7358                 0.4423459        69.29091        0.1393307       -40.63699        0.1393305       -40.63698        0.4423459          69.291
4.7372                 0.4388376        68.63318        0.1378992       -41.38622         0.137899       -41.38621        0.4388376        68.63323
4.7386                 0.4352266        67.96874        0.1364274       -42.14696        0.1364272       -42.14696        0.4352267         67.9688
4.74                   0.4315031        67.29945        0.1349202       -42.91465        0.1349201       -42.91465        0.4315031         67.2995
4.7414                 0.4276603        66.62738        0.1333852       -43.68511         0.133385       -43.68511        0.4276604        66.62743
4.7428                 0.4236953        65.95487        0.1318318       -44.45475        0.1318316       -44.45474        0.4236954        65.95492
4.7442                 0.4196085        65.28429        0.1302713       -45.22076        0.1302711       -45.22075        0.4196086        65.28438
4.7456                  0.415404         64.6182        0.1287165       -45.98135        0.1287162       -45.98134        0.4154041        64.61828
4.747                  0.4110894        63.95895        0.1271805       -46.73587        0.1271803       -46.73586        0.4110894        63.95903
4.7484                  0.406675        63.30873        0.1256768       -47.48497        0.1256766       -47.48495        0.4066751        63.30882
4.7498                 0.4021743         62.6696        0.1242185       -48.23066        0.1242183       -48.23063        0.4021743        62.66965
4.7512                 0.3976024        62.04321        0.1228176       -48.97632        0.1228174       -48.97629        0.3976024        62.04327
4.7526                 0.3929762        61.43084        0.1214846       -49.72673        0.1214844       -49.72669        0.3929763         61.4309
4.754                  0.3883133         60.8333        0.1202279       -50.48783        0.1202277       -50.48779        0.3883133        60.83336
4.7554                 0.3836314        60.25095        0.1190535       -51.26665        0.1190534       -51.26661        0.3836314        60.25103
4.7568                 0.3789473        59.68363        0.1179649       -52.07102        0.1179647       -52.07097        0.3789473        59.68369
4.7582                 0.3742765        59.13057        0.1169624       -52.90924        0.1169622        -52.9092        0.3742765        59.13062
4.7596                 0.3696322        58.59057        0.1160438       -53.78984        0.1160437        -53.7898        0.3696322        58.59063
4.761                  0.3650251        58.06197        0.1152043       -54.72119        0.1152042       -54.72114        0.3650251        58.06202
4.7624                 0.3604622        57.54267        0.1144365       -55.71118        0.1144363       -55.71114        0.3604623        57.54276
4.7638                 0.3559474        57.03033        0.1137311         -56.767        0.1137309       -56.76696        0.3559474        57.03041
4.7652                 0.3514802        56.52239        0.1130773       -57.89485        0.1130771       -57.89482        0.3514802        56.52244
4.7666                 0.3470565        56.01619        0.1124633       -59.09983        0.1124632       -59.09979        0.3470565        56.01623
4.768                  0.3426683        55.50925         0.111877        -60.3858        0.1118769       -60.38577        0.3426683         55.5093
4.7694                 0.3383042         54.9992        0.1113062       -61.75537        0.1113061       -61.75534        0.3383043        54.99925
4.7708                 0.3339498        54.48407        0.1107395       -63.20993        0.1107393       -63.20991        0.3339499        54.48412
4.7722                 0.3295882        53.96236        0.1101664       -64.74975        0.1101663       -64.74972        0.3295881        53.96242
4.7736                 0.3252005        53.43316        0.1095781       -66.37407         0.109578       -66.37404        0.3252005        53.43322
4.775                  0.3207674        52.89625        0.1089675       -68.08122        0.1089674        -68.0812        0.3207674         52.8963
4.7764                 0.3162691        52.35216        0.1083296       -69.86887        0.1083294       -69.86884        0.3162691         52.3522
4.7778                 0.3116867        51.80224        0.1076615       -71.73412        0.1076613       -71.73409        0.3116867        51.80228
4.7792                 0.3070029        51.24869        0.1069626       -73.67374        0.1069624       -73.67371        0.3070028        51.24872
4.7806                 0.3022026        50.69456        0.1062348        -75.6843        0.1062346       -75.68427        0.3022026        50.69459
4.782                  0.2972742        50.14372        0.1054819       -77.76236        0.1054817       -77.76233        0.2972741        50.14375
4.7834                 0.2922095        49.60086        0.1047099       -79.90463        0.1047097       -79.90461        0.2922093        49.60088
4.7848                 0.2870047        49.07139        0.1039268       -82.10809        0.1039266       -82.10806        0.2870045        49.07142
4.7862                 0.2816608        48.56144        0.1031422       -84.37012         0.103142       -84.37008        0.2816606        48.56147
4.7876                 0.2761837        48.07767         0.102367       -86.68863        0.1023668        -86.6886        0.2761834        48.07771
4.789                  0.2705844        47.62725        0.1016133       -89.06215         0.101613        -89.0621        0.2705841        47.62729
4.7904                 0.2648792        47.21767        0.1008939       -91.48983        0.1008936       -91.48978        0.2648789        47.21772
4.7918                 0.2590892        46.85661        0.1002221       -93.97153        0.1002218       -93.97147        0.2590888        46.85667
4.7932                 0.2532403        46.55179        0.0996113       -96.50777       0.09961106        -96.5077        0.2532398        46.55186
4.7946                 0.2473624        46.31072       0.09907476       -99.09972       0.09907451       -99.09966         0.247362        46.31079
4.796                  0.2414896         46.1405       0.09862513       -101.7491       0.09862489        -101.749        0.2414891        46.14058
4.7974                 0.2356583        46.04757       0.09827434        -104.458       0.09827411       -104.4579        0.2356579        46.04766
4.7988                 0.2299076        46.03741       0.09803329       -107.2289       0.09803306       -107.2288        0.2299072        46.03752
4.8002                 0.2242773        46.11433       0.09791163       -110.0643        0.0979114       -110.0642        0.2242769        46.11444
4.8016                 0.2188072        46.28107       0.09791765       -112.9665       0.09791743       -112.9663        0.2188068        46.28121
4.803                  0.2135361        46.53866       0.09805808       -115.9374       0.09805786       -115.9373        0.2135357        46.53882
4.8044                 0.2085002         46.8861       0.09833808       -118.9788       0.09833787       -118.9787        0.2084998        46.88627
4.8058                 0.2037323        47.32026       0.09876113       -122.0912       0.09876094       -122.0911         0.203732        47.32043
4.8072                 0.1992603         47.8358       0.09932905       -125.2746       0.09932886       -125.2744          0.19926        47.83598
4.8086                 0.1951065        48.42525         0.100042       -128.5277        0.1000418       -128.5276        0.1951062        48.42544
4.81                   0.1912865        49.07921        0.1008984       -131.8484        0.1008982       -131.8483        0.1912863        49.07941
4.8114                 0.1878091        49.78666        0.1018952       -135.2333         0.101895       -135.2332         0.187809        49.78686
4.8128                 0.1846759        50.53542        0.1030277       -138.6779        0.1030275       -138.6778        0.1846758        50.53563
4.8142                 0.1818815        51.31275        0.1042897       -142.1767        0.1042896       -142.1766        0.1818815        51.31294
4.8156                 0.1794142         52.1058        0.1056738       -145.7233        0.1056737       -145.7231        0.1794141        52.10599
4.817                  0.1772566         52.9023        0.1071709       -149.3103        0.1071708       -149.3102        0.1772567         52.9025
4.8184                 0.1753875        53.69104         0.108771         -152.93        0.1087709       -152.9299        0.1753875        53.69123
4.8198                 0.1737821        54.46219        0.1104629       -156.5739        0.1104628       -156.5738        0.1737822        54.46237
4.8212                 0.1724145        55.20762        0.1122345        -160.233        0.1122344       -160.2329        0.1724146        55.20779
4.8226                 0.1712583        55.92093        0.1140729       -163.8984        0.1140728       -163.8983        0.1712584        55.92109
4.824                  0.1702882        56.59746        0.1159647        -167.561        0.1159647       -167.5609        0.1702883        56.59761
4.8254                 0.1694807        57.23406        0.1178964       -171.2115        0.1178964       -171.2114        0.1694808         57.2342
4.8268                 0.1688152        57.82881        0.1198542       -174.8409        0.1198542       -174.8408        0.1688152        57.82895
4.8282                 0.1682741        58.38071        0.1218249       -178.4404        0.1218248       -178.4404        0.1682742        58.38083
4.8296                 0.1678434        58.88921        0.1237955        177.9986        0.1237955        177.9986        0.1678434        58.88934
4.831                  0.1675119        59.35396        0.1257545        174.4844        0.1257544        174.4844        0.1675118        59.35409
4.8324                 0.1672711        59.77436        0.1276912        171.0249        0.1276912        171.0249        0.1672711        59.77448
4.8338                 0.1671149        60.14929         0.129597        167.6275         0.129597        167.6276        0.1671149        60.14942
4.8352                 0.1670381        60.47696         0.131465        164.2994         0.131465        164.2995        0.1670381        60.47709
4.8366                 0.1670359        60.75471        0.1332908         161.047        0.1332908         161.047        0.1670358        60.75483
4.838                  0.1671027        60.97899        0.1350725        157.8761        0.1350725        157.8761        0.1671026        60.97913
4.8394                 0.1672311         61.1455        0.1368111        154.7919        0.1368111         154.792         0.167231        61.14564
4.8408                 0.1674112        61.24922        0.1385108        151.7989        0.1385108         151.799        0.1674111        61.24937
4.8422                 0.1676298        61.28474        0.1401786        148.9005        0.1401786        148.9005        0.1676297        61.28489
4.8436                 0.1678694        61.24649         0.141825         146.099         0.141825         146.099        0.1678693        61.24666
4.845                  0.1681086        61.12909        0.1434633        143.3957        0.1434632        143.3957        0.1681085        61.12926
4.8464                 0.1683213        60.92755        0.1451097        140.7904        0.1451097        140.7904        0.1683212        60.92772
4.8478                 0.1684772        60.63773        0.1467829        138.2815        0.1467829        138.2815        0.1684771        60.63791
4.8492                 0.1685421         60.2565        0.1485035        135.8657        0.1485035        135.8657         0.168542        60.25667
4.8506                 0.1684784        59.78195        0.1502934         133.538        0.1502934         133.538        0.1684783        59.78213
4.852                   0.168246        59.21365         0.152175        131.2917         0.152175        131.2917         0.168246        59.21382
4.8534                 0.1678029        58.55267        0.1541704        129.1183        0.1541704        129.1183        0.1678029        58.55285
4.8548                 0.1671062        57.80175        0.1563004        127.0077        0.1563004        127.0078        0.1671062        57.80193
4.8562                 0.1661132        56.96532        0.1585834        124.9486        0.1585834        124.9486        0.1661132        56.96549
4.8576                 0.1647823        56.04953        0.1610345        122.9282        0.1610345        122.9282        0.1647823        56.04971
4.859                  0.1630739        55.06238        0.1636647        120.9331        0.1636646        120.9331        0.1630738        55.06255
4.8604                 0.1609514        54.01376        0.1664798        118.9496        0.1664798        118.9497        0.1609514        54.01393
4.8618                 0.1583823        52.91561        0.1694803        116.9641        0.1694802        116.9641        0.1583823        52.91577
4.8632                 0.1553388        51.78213        0.1726603        114.9632        0.1726603        114.9632        0.1553388         51.7823
4.8646                 0.1517989        50.63019        0.1760082        112.9347        0.1760081        112.9347        0.1517988        50.63035
4.866                  0.1477469        49.47972        0.1795057        110.8674        0.1795057        110.8675        0.1477468        49.47988
4.8674                 0.1431748        48.35451        0.1831292        108.7518        0.1831292        108.7518        0.1431747        48.35467
4.8688                 0.1380829        47.28316        0.1868494        106.5799        0.1868494        106.5799        0.1380828        47.28334
4.8702                 0.1324811        46.30052        0.1906322        104.3454        0.1906322        104.3454        0.1324809         46.3007
4.8716                   0.12639        45.44959        0.1944397        102.0437        0.1944397        102.0438        0.1263899        45.44976