! TOUCHSTONE file generated by CST MICROWAVE STUDIO
! Date and time: Mon Dec  2 05:46:48 2024
! Project name: test_tuning.cst
! Parameters = {airCoaxOuterDiameter=3; chamferAngle=45; chamferWidth=24; connectorLength=10; drillingHoleDiameter=4.1; feedLength=40; flareDiameter=130; flareLength=70; gratingDistance=0; gratingGap=1.90274; outletLength=30; polarizerLength=134; probe1Diameter=1.3; probe1Distance=14; probe1Length=12; probe2Diameter=1.3; probe2Distance=0; probe2Length=12; probeLength=12; smaInnerDiameter=1.3; smaOuterDiameter=4.1; transitionCoefficient=1.33; waveguideFeedLength=30; waveguideSide=50; waveguideThickness=3; wireCount=25; wireDiameter=1.17699}
! Header version: 2024
! Port assignment regex: !\s*Touchstone port\s*([0-9]+)\s*=\s*(CST MWS port|CST DES external port|CST DES block port)\s*(.+)\s* \(\"(.*)\"\)(\s*mode\s*([0-9]+))?.*
! Touchstone port assignment:
! Touchstone port 1 = CST MWS port 1 ("Input1")
! Touchstone port 2 = CST MWS port 2 ("Input2")
# GHz S MA R 50
4.6                    0.3209786        30.68225        0.3168402        111.6943        0.3168403        111.6942        0.3209785        30.68237
4.6014                 0.3182432        29.98697        0.3174168        111.2938        0.3174168        111.2937        0.3182431         29.9871
4.6028                 0.3155064        29.28954         0.318009        110.8946        0.3180089        110.8945        0.3155062        29.28966
4.6042                 0.3127745        28.58964        0.3186156        110.4957        0.3186155        110.4956        0.3127743        28.58977
4.6056                 0.3100534        27.88676        0.3192347        110.0961        0.3192344        110.0959        0.3100533        27.88688
4.607                  0.3073485        27.18013        0.3198629        109.6949        0.3198624        109.6948        0.3073485        27.18026
4.6084                 0.3046644         26.4688        0.3204957        109.2915        0.3204952        109.2914        0.3046643        26.46894
4.6098                 0.3020043        25.75166        0.3211284        108.8855        0.3211276        108.8854        0.3020042        25.75179
4.6112                 0.2993705        25.02743        0.3217552        108.4766        0.3217543        108.4764        0.2993706        25.02755
4.6126                 0.2967643        24.29476        0.3223705        108.0647        0.3223695        108.0646        0.2967643        24.29489
4.614                  0.2941855        23.55227        0.3229684        107.6501        0.3229673          107.65        0.2941856        23.55239
4.6154                 0.2916327        22.79856        0.3235437        107.2331        0.3235425         107.233        0.2916328        22.79868
4.6168                 0.2891037        22.03232        0.3240913        106.8144          0.32409        106.8144        0.2891038        22.03244
4.6182                 0.2865949         21.2523        0.3246071        106.3947        0.3246058        106.3947        0.2865951        21.25241
4.6196                 0.2841026        20.45742        0.3250881         105.975        0.3250868         105.975        0.2841028        20.45753
4.621                  0.2816221        19.64676         0.325532        105.5562        0.3255307        105.5562        0.2816223        19.64686
4.6224                 0.2791486        18.81958         0.325938        105.1394        0.3259367        105.1395        0.2791487        18.81967
4.6238                  0.276677        17.97537        0.3263064        104.7256        0.3263051        104.7257        0.2766772        17.97544
4.6252                 0.2742027        17.11382        0.3266385        104.3159        0.3266373         104.316        0.2742029        17.11389
4.6266                 0.2717213        16.23484         0.326937        103.9112        0.3269359        103.9114        0.2717215         16.2349
4.628                  0.2692291        15.33852        0.3272053        103.5124        0.3272043        103.5125        0.2692292        15.33856
4.6294                 0.2667231        14.42511        0.3274477          103.12        0.3274469        103.1202        0.2667232        14.42514
4.6308                 0.2642012        13.49501        0.3276691        102.7347        0.3276685        102.7349        0.2642014        13.49503
4.6322                 0.2616625        12.54871        0.3278749        102.3568        0.3278743         102.357        0.2616626        12.54873
4.6336                 0.2591068        11.58676        0.3280703        101.9864        0.3280698        101.9866        0.2591068        11.58677
4.635                  0.2565352        10.60972        0.3282605        101.6235        0.3282602        101.6236        0.2565352        10.60973
4.6364                 0.2539496        9.618097        0.3284505        101.2678        0.3284504        101.2679        0.2539495        9.618107
4.6378                  0.251353         8.61234        0.3286447        100.9189        0.3286447        100.9191        0.2513528        8.612348
4.6392                 0.2487489        7.592756        0.3288464        100.5765        0.3288465        100.5767        0.2487487        7.592767
4.6406                 0.2461416        6.559495        0.3290583        100.2399        0.3290586          100.24        0.2461414        6.559509
4.642                  0.2435358        5.512509        0.3292821        99.90844        0.3292824        99.90859        0.2435356        5.512529
4.6434                 0.2409364        4.451533        0.3295184        99.58155        0.3295187        99.58166        0.2409361        4.451559
4.6448                 0.2383482        3.376064        0.3297666        99.25861         0.329767        99.25872        0.2383479        3.376097
4.6462                  0.235776        2.285359        0.3300255        98.93913         0.330026        98.93922        0.2357756          2.2854
4.6476                 0.2332239        1.178437        0.3302928        98.62274        0.3302933        98.62281        0.2332236        1.178487
4.649                  0.2306959      0.05409576        0.3305658        98.30917        0.3305663        98.30923        0.2306956      0.05415354
4.6504                 0.2281948       -1.089066        0.3308412        97.99844        0.3308417        97.99847        0.2281945       -1.089001
4.6518                 0.2257229        -2.25261        0.3311155        97.69066         0.331116        97.69069        0.2257226       -2.252538
4.6532                 0.2232813       -3.438219        0.3313856        97.38622         0.331386        97.38622        0.2232811       -3.438143
4.6546                 0.2208702       -4.647647        0.3316484        97.08567        0.3316487        97.08567          0.22087       -4.647568
4.656                  0.2184891       -5.882664        0.3319017        96.78978         0.331902        96.78977        0.2184889       -5.882584
4.6574                 0.2161361       -7.144999        0.3321441        96.49946        0.3321444        96.49946         0.216136       -7.144922
4.6588                 0.2138088       -8.436291        0.3323754         96.2158        0.3323756        96.21578        0.2138087       -8.436217
4.6602                 0.2115041       -9.758022        0.3325967        95.93994        0.3325969        95.93991         0.211504       -9.757955
4.6616                  0.209218       -11.11148        0.3328108        95.67309        0.3328109        95.67308         0.209218       -11.11142
4.663                  0.2069464        -12.4977        0.3330217        95.41651        0.3330218        95.41649        0.2069464       -12.49765
4.6644                 0.2046848       -13.91744        0.3332353        95.17131        0.3332354        95.17129        0.2046849       -13.91741
4.6658                 0.2024288       -15.37116        0.3334592        94.93858        0.3334592        94.93856        0.2024288       -15.37114
4.6672                  0.200174       -16.85895        0.3337022        94.71917        0.3337023        94.71916        0.2001741       -16.85895
4.6686                 0.1979165       -18.38061        0.3339748         94.5138        0.3339748        94.51379        0.1979165       -18.38063
4.67                   0.1956528       -19.93556        0.3342885        94.32282        0.3342885        94.32282        0.1956528       -19.93559
4.6714                 0.1933801       -21.52288        0.3346557         94.1464        0.3346556        94.14639        0.1933801       -21.52294
4.6728                 0.1910965       -23.14135        0.3350895        93.98426        0.3350896        93.98426        0.1910965       -23.14142
4.6742                 0.1888008       -24.78941        0.3356034        93.83578        0.3356035        93.83578        0.1888008        -24.7895
4.6756                 0.1864931       -26.46524        0.3362107        93.70006        0.3362108        93.70005         0.186493       -26.46534
4.677                  0.1841744       -28.16676        0.3369244        93.57573        0.3369244        93.57573        0.1841742       -28.16688
4.6784                 0.1818465       -29.89168        0.3377564         93.4611        0.3377565         93.4611        0.1818463       -29.89181
4.6798                 0.1795126       -31.63752        0.3387179         93.3542         0.338718         93.3542        0.1795124       -31.63765
4.6812                 0.1771768       -33.40167        0.3398184        93.25275        0.3398186        93.25274        0.1771765       -33.40177
4.6826                 0.1748442       -35.18136        0.3410659        93.15427         0.341066        93.15425        0.1748438       -35.18149
4.684                  0.1725206       -36.97381        0.3424663        93.05608        0.3424663        93.05608        0.1725202       -36.97395
4.6854                 0.1702128        -38.7762        0.3440235        92.95544        0.3440235        92.95543        0.1702123       -38.77631
4.6868                 0.1679282       -40.58572        0.3457392        92.84958        0.3457393        92.84955        0.1679276       -40.58582
4.6882                 0.1656746       -42.39959        0.3476132        92.73577        0.3476133        92.73575        0.1656741        -42.3997
4.6896                 0.1634605       -44.21511        0.3496429        92.61138         0.349643        92.61135        0.1634599       -44.21522
4.691                  0.1612945       -46.02973        0.3518239        92.47395        0.3518238        92.47393        0.1612939       -46.02984
4.6924                 0.1591854       -47.84102        0.3541496        92.32124        0.3541496        92.32121        0.1591848       -47.84114
4.6938                  0.157142       -49.64678        0.3566122        92.15128        0.3566122        92.15125        0.1571414       -49.64686
4.6952                 0.1551731       -51.44488        0.3592024        91.96236        0.3592023        91.96233        0.1551725       -51.44497
4.6966                 0.1532871       -53.23352        0.3619094        91.75307        0.3619093        91.75306        0.1532865       -53.23355
4.698                  0.1514922       -55.01105        0.3647221        91.52239        0.3647219        91.52237        0.1514916       -55.01108
4.6994                 0.1497962       -56.77608        0.3676282        91.26947        0.3676281        91.26946        0.1497956       -56.77611
4.7008                 0.1482062       -58.52748        0.3706157         90.9939        0.3706155        90.99388        0.1482057       -58.52748
4.7022                 0.1467289       -60.26431         0.373672        90.69545        0.3736718        90.69543        0.1467285       -60.26434
4.7036                 0.1453704       -61.98592        0.3767848        90.37417        0.3767847        90.37415          0.14537       -61.98591
4.705                   0.144136       -63.69174        0.3799423        90.03036        0.3799422        90.03035        0.1441356       -63.69173
4.7064                 0.1430304       -65.38151         0.383133         89.6645        0.3831328         89.6645          0.14303        -65.3815
4.7078                 0.1420575       -67.05507         0.386346        89.27721        0.3863458        89.27721        0.1420572       -67.05508
4.7092                 0.1412206       -68.71243        0.3895712        88.86929         0.389571        88.86929        0.1412203       -68.71245
4.7106                 0.1405223       -70.35374        0.3927993         88.4416        0.3927992         88.4416        0.1405221       -70.35377
4.712                  0.1399648       -71.97919        0.3960219        87.99512        0.3960218        87.99512        0.1399646       -71.97923
4.7134                 0.1395494       -73.58908        0.3992314        87.53082        0.3992313        87.53082        0.1395492       -73.58913
4.7148                  0.139277       -75.18374        0.4024209        87.04979        0.4024208        87.04979        0.1392769       -75.18381
4.7162                 0.1391481       -76.76353        0.4055845        86.55303        0.4055845        86.55303         0.139148       -76.76362
4.7176                 0.1391627       -78.32885        0.4087173        86.04163        0.4087172        86.04163        0.1391626       -78.32896
4.719                  0.1393205       -79.88008        0.4118147        85.51659        0.4118147        85.51659        0.1393204        -79.8802
4.7204                 0.1396208       -81.41761        0.4148733        84.97894        0.4148733        84.97896        0.1396207       -81.41775
4.7218                 0.1400629       -82.94186        0.4178901        84.42962        0.4178901        84.42962        0.1400627         -82.942
4.7232                 0.1406455       -84.45319        0.4208628        83.86965        0.4208628        83.86965        0.1406454       -84.45334
4.7246                 0.1413676       -85.95203        0.4237899        83.29978        0.4237899        83.29978        0.1413674       -85.95219
4.726                  0.1422277       -87.43876        0.4266701        82.72097          0.42667        82.72097        0.1422275       -87.43893
4.7274                 0.1432243       -88.91382        0.4295028        82.13399        0.4295028        82.13399        0.1432241         -88.914
4.7288                 0.1443559       -90.37768        0.4322881        81.53958        0.4322881        81.53958        0.1443556       -90.37787
4.7302                 0.1456207       -91.83081        0.4350263        80.93842        0.4350262        80.93842        0.1456204       -91.83097
4.7316                  0.147017        -93.2737        0.4377182        80.33115        0.4377181        80.33115        0.1470167       -93.27386
4.733                  0.1485429       -94.70689         0.440365        79.71841        0.4403649        79.71841        0.1485425       -94.70703
4.7344                 0.1501962       -96.13092        0.4429684        79.10069        0.4429683        79.10069        0.1501959       -96.13105
4.7358                 0.1519748       -97.54639        0.4455304        78.47848        0.4455304        78.47848        0.1519745        -97.5465
4.7372                 0.1538764       -98.95384        0.4480534        77.85219        0.4480533        77.85219        0.1538761       -98.95396
4.7386                 0.1558983       -100.3539          0.45054        77.22217        0.4505399        77.22217        0.1558981        -100.354
4.74                    0.158038       -101.7471        0.4529931        76.58874        0.4529931        76.58874        0.1580377       -101.7472
4.7414                 0.1602924        -103.134        0.4554159        75.95207        0.4554159        75.95207        0.1602922        -103.134
4.7428                 0.1626585        -104.515        0.4578117        75.31234        0.4578116        75.31234        0.1626583       -104.5151
4.7442                  0.165133       -105.8907        0.4601838        74.66964        0.4601837        74.66964        0.1651328       -105.8908
4.7456                 0.1677125       -107.2615        0.4625359        74.02401        0.4625358        74.02401        0.1677123       -107.2615
4.747                  0.1703933       -108.6275        0.4648712        73.37533        0.4648711        73.37533        0.1703932       -108.6276
4.7484                 0.1731718       -109.9892        0.4671932        72.72349        0.4671931        72.72349        0.1731718       -109.9893
4.7498                 0.1760444       -111.3467         0.469505        72.06838        0.4695049        72.06838        0.1760443       -111.3467
4.7512                 0.1790072          -112.7        0.4718096        71.40963        0.4718096        71.40963        0.1790072          -112.7
4.7526                 0.1820565       -114.0492        0.4741098        70.74705        0.4741097        70.74705        0.1820565       -114.0492
4.754                  0.1851887       -115.3942        0.4764077        70.08022        0.4764076        70.08022        0.1851888       -115.3943
4.7554                 0.1884004        -116.735        0.4787053        69.40878        0.4787053        69.40878        0.1884005       -116.7351
4.7568                 0.1916882       -118.0714        0.4810042        68.73235        0.4810041        68.73235        0.1916883       -118.0715
4.7582                 0.1950492       -119.4033        0.4833051        68.05044        0.4833051        68.05043        0.1950493       -119.4034
4.7596                 0.1984805       -120.7305        0.4856086        67.36258        0.4856086        67.36258        0.1984806       -120.7306
4.761                  0.2019797       -122.0529        0.4879148        66.66841        0.4879148        66.66841        0.2019799        -122.053
4.7624                 0.2055447       -123.3703        0.4902231         65.9674        0.4902231         65.9674        0.2055448       -123.3704
4.7638                 0.2091737       -124.6826        0.4925326        65.25915        0.4925326        65.25915        0.2091738       -124.6827
4.7652                 0.2128652       -125.9898        0.4948417        64.54322        0.4948417        64.54322        0.2128654       -125.9899
4.7666                 0.2166182       -127.2919        0.4971489        63.81922        0.4971489        63.81922        0.2166183        -127.292
4.768                  0.2204317        -128.589        0.4994518         63.0868        0.4994518         63.0868        0.2204318       -128.5891
4.7694                 0.2243054       -129.8813        0.5017482        62.34561        0.5017482        62.34561        0.2243055       -129.8815
4.7708                 0.2282387       -131.1692        0.5040353        61.59537        0.5040353        61.59534        0.2282387       -131.1693
4.7722                 0.2322315       -132.4529        0.5063105        60.83578        0.5063104        60.83578        0.2322316        -132.453
4.7736                 0.2362838        -133.733        0.5085707        60.06665        0.5085707        60.06662        0.2362837       -133.7331
4.775                  0.2403952       -135.0099         0.510813        59.28771         0.510813         59.2877        0.2403951       -135.0101
4.7764                 0.2445658       -136.2845        0.5130347        58.49878        0.5130346        58.49877        0.2445657       -136.2846
4.7778                 0.2487953       -137.5573        0.5152326         57.6997        0.5152325         57.6997        0.2487951       -137.5574
4.7792                  0.253083       -138.8292         0.517404        56.89029         0.517404        56.89029        0.2530828       -138.8293
4.7806                 0.2574283       -140.1009        0.5195461        56.07041         0.519546        56.07041        0.2574281        -140.101
4.782                  0.2618301       -141.3733        0.5216562        55.23987        0.5216561        55.23987        0.2618299       -141.3734
4.7834                 0.2662868       -142.6473        0.5237316        54.39852        0.5237314        54.39852        0.2662866       -142.6474
4.7848                 0.2707968       -143.9237        0.5257696        53.54616        0.5257696        53.54615        0.2707966       -143.9238
4.7862                 0.2753575       -145.2034        0.5277677         52.6826        0.5277676        52.68259        0.2753573       -145.2035
4.7876                 0.2799663       -146.4873        0.5297232         51.8076        0.5297231        51.80759        0.2799662       -146.4874
4.789                  0.2846201        -147.776        0.5316333        50.92093        0.5316333        50.92092          0.28462       -147.7761
4.7904                 0.2893152       -149.0705        0.5334952        50.02231        0.5334951         50.0223        0.2893151       -149.0705
4.7918                 0.2940477       -150.3712        0.5353055        49.11143        0.5353055        49.11143        0.2940476       -150.3712
4.7932                  0.298813       -151.6789        0.5370611          48.188        0.5370611        48.18799         0.298813       -151.6789
4.7946                 0.3036067       -152.9941        0.5387581        47.25165        0.5387581        47.25164        0.3036067       -152.9941
4.796                  0.3084236       -154.3173        0.5403925        46.30201        0.5403925        46.30201        0.3084236       -154.3173
4.7974                 0.3132586        -155.649        0.5419598        45.33872        0.5419597        45.33871        0.3132587        -155.649
4.7988                 0.3181065       -156.9896        0.5434549        44.36138        0.5434548        44.36138        0.3181066       -156.9896
4.8002                 0.3229616       -158.3393        0.5448723         43.3696        0.5448723         43.3696        0.3229618       -158.3394
4.8016                 0.3278185       -159.6986        0.5462063        42.36298        0.5462063        42.36298        0.3278187       -159.6986
4.803                  0.3326715       -161.0677        0.5474502        41.34114        0.5474501        41.34114        0.3326717       -161.0677
4.8044                 0.3375149       -162.4468         0.548597         40.3037         0.548597        40.30369        0.3375152       -162.4468
4.8058                 0.3423433       -163.8362        0.5496394        39.25029        0.5496393        39.25028        0.3423436       -163.8362
4.8072                 0.3471508       -165.2362        0.5505693        38.18057        0.5505692        38.18057        0.3471511       -165.2362
4.8086                 0.3519318       -166.6469        0.5513784        37.09424        0.5513783        37.09424        0.3519322        -166.647
4.81                   0.3566807       -168.0688        0.5520578        35.99099        0.5520578        35.99099         0.356681       -168.0689
4.8114                 0.3613916       -169.5021        0.5525984        34.87057        0.5525984        34.87056        0.3613919       -169.5021
4.8128                 0.3660586       -170.9471        0.5529908        33.73274        0.5529906        33.73274        0.3660589       -170.9471
4.8142                 0.3706756       -172.4042        0.5532251        32.57732         0.553225        32.57731        0.3706759       -172.4042
4.8156                 0.3752363       -173.8738        0.5532913        31.40412        0.5532912        31.40411        0.3752366       -173.8738
4.817                  0.3797341       -175.3563        0.5531793        30.21302        0.5531791        30.21302        0.3797344       -175.3563
4.8184                 0.3841619       -176.8522        0.5528786        29.00392        0.5528784        29.00392        0.3841623       -176.8523
4.8198                 0.3885124        -178.362        0.5523788        27.77674        0.5523787        27.77674        0.3885127       -178.3621
4.8212                 0.3927776       -179.8863        0.5516694        26.53144        0.5516693        26.53144        0.3927779       -179.8863
4.8226                 0.3969489        178.5745        0.5507397          25.268        0.5507396        25.26799        0.3969492        178.5745
4.824                  0.4010172        177.0198         0.549579        23.98642        0.5495789        23.98642        0.4010175        177.0198
4.8254                 0.4049727        175.4491        0.5481766        22.68674        0.5481765        22.68674         0.404973        175.4491
4.8268                 0.4088049        173.8618        0.5465219        21.36903        0.5465218        21.36904        0.4088052        173.8618
4.8282                 0.4125027        172.2574        0.5446041        20.03338        0.5446039        20.03339         0.412503        172.2573
4.8296                  0.416054        170.6354        0.5424124        18.67991        0.5424123        18.67991        0.4160544        170.6353
4.831                  0.4194464        168.9953        0.5399362        17.30876        0.5399361        17.30876        0.4194467        168.9953
4.8324                 0.4226664        167.3368         0.537165        15.92012        0.5371648        15.92013        0.4226668        167.3368
4.8338                 0.4257004        165.6595        0.5340881        14.51421         0.534088        14.51422        0.4257007        165.6595
4.8352                 0.4285337        163.9631        0.5306952        13.09131        0.5306952        13.09132         0.428534        163.9631
4.8366                 0.4311516        162.2473         0.526976        11.65174        0.5269759        11.65175         0.431152        162.2473
4.838                  0.4335388        160.5121        0.5229204        10.19586        0.5229204        10.19587        0.4335392        160.5121
4.8394                 0.4356797        158.7573        0.5185185        8.724122        0.5185185        8.724129        0.4356801        158.7573
4.8408                 0.4375586        156.9829        0.5137609        7.237043        0.5137609        7.237052        0.4375589        156.9829
4.8422                 0.4391597        155.1891        0.5086385        5.735226        0.5086384        5.735234        0.4391601        155.1891
4.8436                 0.4404674        153.3759        0.5031425        4.219366        0.5031426        4.219374        0.4404677        153.3758
4.845                   0.441466        151.5435        0.4972652        2.690266        0.4972652        2.690275        0.4414664        151.5435
4.8464                 0.4421404        149.6924         0.490999        1.148851         0.490999         1.14886        0.4421407        149.6923
4.8478                 0.4424758        147.8228        0.4843375      -0.4038229        0.4843375       -0.403814        0.4424761        147.8227
4.8492                  0.442458        145.9352        0.4772751       -1.966552        0.4772751       -1.966543        0.4424583        145.9351
4.8506                 0.4420735        144.0301        0.4698073        -3.53797        0.4698073        -3.53796        0.4420738          144.03
4.852                  0.4413097        142.1081        0.4619309       -5.116525        0.4619309       -5.116516        0.4413099         142.108
4.8534                 0.4401545        140.1698        0.4536438       -6.700469        0.4536439        -6.70046        0.4401548        140.1698
4.8548                 0.4385973         138.216        0.4449457        -8.28783        0.4449457        -8.28782        0.4385976         138.216
4.8562                 0.4366284        136.2474        0.4358376       -9.876387        0.4358377       -9.876377        0.4366286        136.2473
4.8576                 0.4342391        134.2647        0.4263224       -11.46364        0.4263225       -11.46364        0.4342393        134.2646
4.859                  0.4314223        132.2688        0.4164048        -13.0468        0.4164049       -13.04679        0.4314225        132.2688
4.8604                 0.4281721        130.2607        0.4060914        -14.6227        0.4060916       -14.62269        0.4281723        130.2606
4.8618                 0.4244837        128.2412        0.3953911        -16.1878        0.3953912        -16.1878        0.4244839        128.2411
4.8632                 0.4203542        126.2113        0.3843145       -17.73812        0.3843147       -17.73811        0.4203544        126.2112
4.8646                 0.4157819         124.172        0.3728749       -19.26913        0.3728751       -19.26912         0.415782         124.172
4.866                  0.4107667        122.1244        0.3610878       -20.77574         0.361088       -20.77573        0.4107668        122.1243
4.8674                   0.40531        120.0695        0.3489709       -22.25215         0.348971       -22.25215          0.40531        120.0695
4.8688                 0.3994147        118.0085        0.3365445       -23.69174        0.3365446       -23.69174        0.3994148        118.0084
4.8702                 0.3930855        115.9425        0.3238313       -25.08693        0.3238315       -25.08693        0.3930855        115.9424
4.8716                 0.3863283        113.8727         0.310857       -26.42898        0.3108572       -26.42899        0.3863284        113.8727