! TOUCHSTONE file generated by CST MICROWAVE STUDIO
! Date and time: Mon Dec  2 05:46:50 2024
! Project name: test_tuning.cst
! Parameters = {airCoaxOuterDiameter=3; chamferAngle=45; chamferWidth=24; connectorLength=10; drillingHoleDiameter=4.1; feedLength=110; flareDiameter=130; flareLength=70; gratingDistance=0; gratingGap=1.90274; outletLength=30; polarizerLength=134; probe1Diameter=1.3; probe1Distance=14; probe1Length=12; probe2Diameter=1.3; probe2Distance=0; probe2Length=12; probeLength=12; smaInnerDiameter=1.3; smaOuterDiameter=4.1; transitionCoefficient=1.33; waveguideFeedLength=30; waveguideSide=50; waveguideThickness=3; wireCount=25; wireDiameter=1.17699}
! Header version: 2024
! Port assignment regex: !\s*Touchstone port\s*([0-9]+)\s*=\s*(CST MWS port|CST DES external port|CST DES block port)\s*(.+)\s* \(\"(.*)\"\)(\s*mode\s*([0-9]+))?.*
! Touchstone port assignment:
! Touchstone port 1 = CST MWS port 1 ("Input1")
! Touchstone port 2 = CST MWS port 2 ("Input2")
# GHz S MA R 50
4.6                    0.4002438        71.62335        0.2380868        115.6153        0.2380866        115.6151        0.4002427         71.6233
4.6014                 0.3989163        70.98066        0.2397049        115.2308        0.2397046        115.2306        0.3989152        70.98062
4.6028                 0.3974554         70.3304        0.2412868        114.8461        0.2412865        114.8459        0.3974542        70.33037
4.6042                 0.3958624        69.67519        0.2428352        114.4634        0.2428348        114.4632        0.3958613        69.67515
4.6056                 0.3941426        69.01754        0.2443545        114.0844         0.244354        114.0843        0.3941416         69.0175
4.607                  0.3923047        68.35974        0.2458507        113.7107        0.2458501        113.7106        0.3923036        68.35971
4.6084                 0.3903603         67.7038         0.247331        113.3433        0.2473304        113.3432        0.3903591        67.70378
4.6098                 0.3883234        67.05136        0.2488034        112.9829        0.2488029        112.9828        0.3883224        67.05133
4.6112                 0.3862101        66.40357        0.2502764        112.6297        0.2502758        112.6296        0.3862089        66.40355
4.6126                  0.384037        65.76116        0.2517584        112.2834        0.2517578        112.2833        0.3840358        65.76113
4.614                  0.3818215        65.12426        0.2532573        111.9434        0.2532567        111.9433        0.3818204        65.12424
4.6154                 0.3795804        64.49254        0.2547806        111.6088        0.2547801        111.6087        0.3795792        64.49251
4.6168                 0.3773295        63.86509        0.2563346        111.2783         0.256334        111.2783        0.3773283        63.86507
4.6182                 0.3750825        63.24057        0.2579242        110.9505        0.2579237        110.9504        0.3750813        63.24055
4.6196                  0.372851        62.61717        0.2595531        110.6236        0.2595527        110.6236        0.3728499        62.61715
4.621                  0.3706438        61.99277        0.2612233        110.2961         0.261223        110.2961        0.3706427        61.99276
4.6224                 0.3684666        61.36492        0.2629354        109.9662        0.2629351        109.9662        0.3684654        61.36492
4.6238                 0.3663216        60.73109        0.2646882        109.6324        0.2646879        109.6324        0.3663205        60.73107
4.6252                  0.364208        60.08856        0.2664793        109.2932         0.266479        109.2931        0.3642068        60.08855
4.6266                 0.3621214        59.43477        0.2683049        108.9473        0.2683047        108.9472        0.3621202        59.43475
4.628                  0.3600549        58.76724        0.2701603        108.5937          0.27016        108.5937        0.3600536        58.76721
4.6294                 0.3579986        58.08372        0.2720397        108.2318        0.2720395        108.2318        0.3579973         58.0837
4.6308                 0.3559408        57.38232        0.2739371         107.861        0.2739369         107.861        0.3559394         57.3823
4.6322                 0.3538681        56.66148         0.275846        107.4812        0.2758458        107.4812        0.3538667        56.66145
4.6336                 0.3517663        55.92006        0.2777601        107.0925        0.2777598        107.0924        0.3517648        55.92004
4.635                  0.3496207         55.1574        0.2796729        106.6951        0.2796726         106.695         0.349619        55.15738
4.6364                 0.3474168        54.37326        0.2815788        106.2897        0.2815784        106.2896        0.3474152        54.37323
4.6378                 0.3451412        53.56778        0.2834725        105.8769        0.2834721        105.8768        0.3451395        53.56777
4.6392                 0.3427818        52.74158        0.2853497        105.4576        0.2853493        105.4575        0.3427799        52.74157
4.6406                 0.3403279        51.89556        0.2872067        105.0327        0.2872062        105.0326         0.340326        51.89557
4.642                  0.3377714        51.03091         0.289041        104.6032        0.2890404        104.6031        0.3377693        51.03094
4.6434                 0.3351061        50.14909        0.2908506        104.1702          0.29085        104.1701         0.335104        50.14913
4.6448                 0.3323288        49.25162        0.2926346        103.7346         0.292634        103.7345        0.3323266        49.25169
4.6462                 0.3294382        48.34012         0.294393        103.2972        0.2943923        103.2972        0.3294361        48.34021
4.6476                 0.3264361        47.41618        0.2961261        102.8591        0.2961253         102.859        0.3264338         47.4163
4.649                  0.3233259        46.48128         0.297835        102.4208        0.2978342        102.4207        0.3233237        46.48143
4.6504                 0.3201136         45.5367        0.2995211         101.983        0.2995202        101.9829        0.3201114        45.53689
4.6518                 0.3168064        44.58352        0.3011861        101.5463        0.3011853        101.5462        0.3168042        44.58374
4.6532                 0.3134128        43.62246        0.3028317         101.111        0.3028309         101.111        0.3134107        43.62271
4.6546                 0.3099424         42.6539        0.3044598        100.6776         0.304459        100.6776        0.3099403        42.65417
4.656                  0.3064048         41.6778        0.3060719        100.2463        0.3060711        100.2464        0.3064029        41.67811
4.6574                 0.3028095        40.69374        0.3076693        99.81745        0.3076685        99.81747        0.3028077        40.69408
4.6588                 0.2991654        39.70087        0.3092532        99.39112        0.3092525        99.39117        0.2991637        39.70123
4.6602                 0.2954804        38.69788        0.3108245        98.96762        0.3108238         98.9677        0.2954789        38.69827
4.6616                 0.2917608        37.68315        0.3123837        98.54722        0.3123831        98.54729        0.2917595        37.68355
4.663                  0.2880112        36.65469        0.3139313        98.13021        0.3139308         98.1303        0.2880101        36.65511
4.6644                 0.2842343        35.61024        0.3154677        97.71701        0.3154672        97.71709        0.2842334        35.61066
4.6658                 0.2804305        34.54733        0.3169932        97.30811        0.3169929        97.30819        0.2804298        34.54777
4.6672                 0.2765982        33.46341        0.3185087        96.90408        0.3185084        96.90419        0.2765977        33.46384
4.6686                 0.2727336        32.35588        0.3200152        96.50565         0.320015        96.50573        0.2727333        32.35629
4.67                    0.268831        31.22218        0.3215146        96.11355        0.3215144        96.11363        0.2688309        31.22257
4.6714                 0.2648832        30.05994        0.3230092        95.72867        0.3230091        95.72874        0.2648833        30.06031
4.6728                 0.2608815        28.86701        0.3245029         95.3519        0.3245028        95.35198        0.2608817        28.86735
4.6742                 0.2568162        27.64157        0.3260003         94.9842        0.3260003        94.98426        0.2568165        27.64188
4.6756                 0.2526774        26.38214        0.3275076        94.62647        0.3275077         94.6265        0.2526778        26.38241
4.677                  0.2484551        25.08769        0.3290324        94.27955        0.3290325        94.27959        0.2484554        25.08793
4.6784                 0.2441395        23.75765        0.3305837        93.94421        0.3305838        93.94425        0.2441399        23.75784
4.6798                 0.2397221         22.3919        0.3321721        93.62103        0.3321722        93.62106        0.2397225        22.39205
4.6812                 0.2351958        20.99084        0.3338096        93.31041        0.3338096        93.31041        0.2351961        20.99095
4.6826                 0.2305548        19.55531        0.3355094        93.01242        0.3355094        93.01242        0.2305551        19.55537
4.684                  0.2257961        18.08661        0.3372861        92.72691        0.3372861         92.7269        0.2257963        18.08663
4.6854                 0.2209187        16.58645         0.339155        92.45331         0.339155        92.45331        0.2209188        16.58644
4.6868                 0.2159242         15.0569        0.3411322        92.19074        0.3411321        92.19072        0.2159242        15.05686
4.6882                 0.2108171        13.50035        0.3432338        91.93783        0.3432336        91.93783        0.2108169        13.50028
4.6896                 0.2056046        11.91942        0.3454759        91.69293        0.3454757        91.69291        0.2056043        11.91932
4.691                  0.2002969        10.31687        0.3478741        91.45387        0.3478738        91.45385        0.2002964        10.31676
4.6924                 0.1949066         8.69556        0.3504428        91.21818        0.3504426        91.21818        0.1949059        8.695448
4.6938                 0.1894489        7.058333        0.3531954        90.98307        0.3531951        90.98308        0.1894481         7.05822
4.6952                 0.1839416        5.407887        0.3561431        90.74541        0.3561428        90.74543        0.1839406        5.407784
4.6966                 0.1784042        3.746689        0.3592952        90.50192        0.3592948        90.50193        0.1784031        3.746601
4.698                   0.172858        2.076829        0.3626583        90.24913         0.362658        90.24915        0.1728568        2.076766
4.6994                 0.1673256       0.3998904        0.3662365        89.98358        0.3662361        89.98362        0.1673244       0.3998595
4.7008                 0.1618307       -1.283198        0.3700308        89.70178        0.3700305        89.70182        0.1618293       -1.283189
4.7022                 0.1563972       -2.972326        0.3740395         89.4004        0.3740392        89.40046        0.1563958       -2.972271
4.7036                 0.1510492       -4.668355        0.3782577        89.07628        0.3782575        89.07634        0.1510478       -4.668248
4.705                  0.1458105       -6.373313        0.3826778        88.72657        0.3826776        88.72664        0.1458091       -6.373127
4.7064                 0.1407038       -8.090424        0.3872893        88.34868        0.3872891        88.34875        0.1407024       -8.090208
4.7078                 0.1357507       -9.824498        0.3920793        87.94047        0.3920792        87.94054        0.1357494       -9.824218
4.7092                 0.1309714       -11.58177        0.3970327        87.50016        0.3970328        87.50024        0.1309702       -11.58142
4.7106                 0.1263841        -13.3701        0.4021327        87.02643        0.4021327        87.02648         0.126383        -13.3697
4.712                  0.1220049       -15.19905        0.4073606        86.51837        0.4073608        86.51842        0.1220039        -15.1986
4.7134                 0.1178478       -17.07968        0.4126971        85.97554        0.4126973        85.97559         0.117847       -17.07919
4.7148                 0.1139247       -19.02449        0.4181218        85.39782        0.4181221         85.3979         0.113924       -19.02396
4.7162                 0.1102452       -21.04717        0.4236143        84.78562        0.4236146        84.78568        0.1102447       -21.04661
4.7176                 0.1068174       -23.16223        0.4291541        84.13957        0.4291544         84.1396         0.106817       -23.16166
4.719                  0.1036475        -25.3846         0.434721        83.46067        0.4347214         83.4607        0.1036473       -25.38402
4.7204                 0.1007409       -27.72902         0.440296        82.75015        0.4402965        82.75018        0.1007408       -27.72847
4.7218                 0.0981022        -30.2095        0.4458608        82.00955        0.4458613        82.00955       0.09810229       -30.20897
4.7232                0.09573588       -32.83853        0.4513986        81.24046        0.4513991        81.24046       0.09573612       -32.83804
4.7246                0.09364665        -35.6264        0.4568941        80.44473        0.4568946         80.4447       0.09364703       -35.62597
4.726                 0.09183991       -38.58043        0.4623338         79.6242        0.4623343        79.62414        0.0918404       -38.58006
4.7274                0.09032189       -41.70429        0.4677059        78.78079        0.4677064        78.78073       0.09032251         -41.704
4.7288                0.08909984       -44.99738        0.4730008        77.91639        0.4730012        77.91636       0.08910056       -44.99717
4.7302                0.08818186       -48.45436        0.4782106        77.03302         0.478211        77.03296       0.08818264       -48.45425
4.7316                0.08757658       -52.06492        0.4833296        76.13241        0.4833299        76.13238       0.08757744        -52.0649
4.733                 0.08729277       -55.81384         0.488354        75.21639        0.4883542        75.21633       0.08729369       -55.81392
4.7344                 0.0873387       -59.68133        0.4932818        74.28655         0.493282         74.2865       0.08733968        -59.6815
4.7358                0.08772151       -63.64368         0.498113        73.34442        0.4981132        73.34437       0.08772253       -63.64393
4.7372                0.08844656       -67.67436        0.5028491        72.39133        0.5028492        72.39127       0.08844761       -67.67468
4.7386                 0.0895169        -71.7451         0.507493        71.42843         0.507493        71.42838       0.08951796       -71.74552
4.74                   0.0909329       -75.82733        0.5120488        70.45679        0.5120489        70.45673       0.09093397       -75.82781
4.7414                0.09269211       -79.89341        0.5165221        69.47716        0.5165221        69.47711       0.09269318       -79.89394
4.7428                0.09478925       -83.91775        0.5209188        68.49016        0.5209187         68.4901       0.09479033       -83.91832
4.7442                 0.0972166       -87.87783        0.5252458        67.49627        0.5252456        67.49619       0.09721766       -87.87844
4.7456                0.09996428       -91.75462          0.52951        66.49563        0.5295099        66.49555       0.09996533       -91.75525
4.747                  0.1030208       -95.53303        0.5337188        65.48834        0.5337186        65.48826        0.1030219       -95.53369
4.7484                 0.1063739       -99.20187        0.5378791        64.47424         0.537879        64.47419        0.1063749       -99.20253
4.7498                 0.1100105       -102.7536        0.5419978         63.4531        0.5419976        63.45308        0.1100115       -102.7543
4.7512                 0.1139179        -106.184        0.5460812        62.42446        0.5460809        62.42443        0.1139189       -106.1847
4.7526                 0.1180838        -109.492        0.5501345        61.38777        0.5501341        61.38771        0.1180847       -109.4926
4.754                  0.1224966       -112.6786        0.5541622        60.34234        0.5541619        60.34229        0.1224974       -112.6792
4.7554                 0.1271457        -115.747         0.558168        59.28738        0.5581676        59.28736        0.1271465       -115.7476
4.7568                 0.1320217       -118.7022        0.5621538        58.22209        0.5621535        58.22206        0.1320224       -118.7027
4.7582                 0.1371161       -121.5499        0.5661209        57.14554        0.5661205        57.14545        0.1371168       -121.5504
4.7596                 0.1424216       -124.2972        0.5700685        56.05674        0.5700682        56.05671        0.1424223       -124.2977
4.761                  0.1479315       -126.9514        0.5739951        54.95484        0.5739948        54.95481        0.1479321       -126.9519
4.7624                 0.1536398       -129.5205        0.5778972        53.83885        0.5778969        53.83882        0.1536404       -129.5209
4.7638                 0.1595409       -132.0124        0.5817702        52.70782        0.5817698        52.70779        0.1595415       -132.0128
4.7652                  0.165629       -134.4351         0.585608         51.5609        0.5856076        51.56087        0.1656295       -134.4355
4.7666                 0.1718982       -136.7966         0.589403        50.39721        0.5894026        50.39719        0.1718988        -136.797
4.768                  0.1783422       -139.1046        0.5931467        49.21599        0.5931463        49.21596        0.1783428       -139.1049
4.7694                 0.1849535       -141.3662        0.5968292        48.01651        0.5968288        48.01648        0.1849542       -141.3664
4.7708                  0.191724       -143.5884        0.6004395        46.79815        0.6004391        46.79812        0.1917247       -143.5886
4.7722                 0.1986441       -145.7776        0.6039656        45.56036        0.6039652        45.56033        0.1986447       -145.7778
4.7736                 0.2057026       -147.9397        0.6073948        44.30268        0.6073943        44.30266        0.2057033       -147.9399
4.775                  0.2128873         -150.08        0.6107135        43.02475        0.6107131        43.02473         0.212888       -150.0801
4.7764                 0.2201839       -152.2032        0.6139077        41.72629        0.6139073        41.72627        0.2201848       -152.2034
4.7778                 0.2275771       -154.3135        0.6169628        40.40712        0.6169622         40.4071         0.227578       -154.3137
4.7792                 0.2350497       -156.4146        0.6198638        39.06713        0.6198632        39.06712        0.2350506       -156.4148
4.7806                 0.2425832       -158.5094        0.6225955        37.70634        0.6225948        37.70633        0.2425842       -158.5096
4.782                  0.2501579       -160.6005        0.6251425        36.32481         0.625142         36.3248        0.2501589       -160.6006
4.7834                 0.2577529       -162.6898        0.6274899        34.92269        0.6274893        34.92269         0.257754       -162.6899
4.7848                 0.2653466       -164.7789        0.6296222        33.50022        0.6296217        33.50022        0.2653477        -164.779
4.7862                 0.2729165       -166.8689        0.6315246         32.0577         0.631524        32.05771        0.2729177       -166.8691
4.7876                 0.2804399       -168.9606        0.6331824         30.5955        0.6331819        30.59551        0.2804411       -168.9607
4.789                  0.2878936       -171.0543        0.6345812        29.11406        0.6345806        29.11407        0.2878948       -171.0544
4.7904                 0.2952546       -173.1501        0.6357072        27.61385        0.6357067        27.61387        0.2952558       -173.1502
4.7918                 0.3025001       -175.2479        0.6365472        26.09543        0.6365467        26.09544        0.3025013        -175.248
4.7932                 0.3096077       -177.3474        0.6370884        24.55938        0.6370879        24.55941        0.3096089       -177.3475
4.7946                 0.3165558        -179.448        0.6373189        23.00637        0.6373185        23.00639         0.316557       -179.4481
4.796                  0.3233235         178.451        0.6372274        21.43707        0.6372269         21.4371        0.3233247        178.4508
4.7974                 0.3298909        176.3503        0.6368033        19.85222         0.636803        19.85225        0.3298921        176.3501
4.7988                 0.3362392        174.2506        0.6360373         18.2526         0.636037        18.25263        0.3362403        174.2505
4.8002                 0.3423508         172.153        0.6349205        16.63902        0.6349203        16.63906        0.3423519        172.1529
4.8016                 0.3482094        170.0583        0.6334452        15.01235         0.633445        15.01239        0.3482104        170.0581
4.803                  0.3538001        167.9673        0.6316048        13.37349        0.6316047        13.37352         0.353801        167.9672
4.8044                 0.3591092         165.881        0.6293936        11.72335        0.6293936        11.72339        0.3591101        165.8808
4.8058                 0.3641244        163.8001        0.6268074        10.06293        0.6268073        10.06296        0.3641253           163.8
4.8072                 0.3688349        161.7256        0.6238426        8.393214        0.6238427        8.393251        0.3688358        161.7254
4.8086                 0.3732309         159.658        0.6204973        6.715264        0.6204974          6.7153        0.3732318        159.6579
4.81                   0.3773042        157.5982        0.6167708        5.030152        0.6167708        5.030187        0.3773049        157.5981
4.8114                 0.3810473        155.5467        0.6126634        3.338991        0.6126635        3.339024         0.381048        155.5466
4.8128                  0.384454        153.5041         0.608177        1.642927        0.6081772        1.642957        0.3844548         153.504
4.8142                 0.3875193        151.4708        0.6033149     -0.05686543        0.6033152     -0.05683825          0.38752        151.4707
4.8156                 0.3902387        149.4475        0.5980817       -1.759183        0.5980819       -1.759158        0.3902395        149.4474
4.817                  0.3926089        147.4344        0.5924832       -3.462794        0.5924834       -3.462773        0.3926096        147.4343
4.8184                  0.394627        145.4319        0.5865269       -5.166447        0.5865271        -5.16643        0.3946277        145.4318
4.8198                 0.3962911        143.4404        0.5802213        -6.86887        0.5802217       -6.868856        0.3962917        143.4403
4.8212                 0.3975996        141.4601        0.5735767       -8.568777        0.5735771       -8.568767        0.3976002          141.46
4.8226                 0.3985517        139.4914        0.5666044       -10.26487        0.5666048       -10.26486        0.3985523        139.4913
4.824                   0.399147        137.5344         0.559317       -11.95585        0.5593174       -11.95584        0.3991475        137.5344
4.8254                 0.3993856        135.5896        0.5517284       -13.64041        0.5517287       -13.64041        0.3993861        135.5896
4.8268                 0.3992682        133.6573        0.5438534       -15.31726        0.5438538       -15.31726        0.3992687        133.6572
4.8282                  0.398796        131.7376        0.5357083       -16.98512        0.5357086       -16.98513        0.3987964        131.7376
4.8296                 0.3979708        129.8311        0.5273099       -18.64275        0.5273102       -18.64277        0.3979712        129.8311
4.831                  0.3967951        127.9382        0.5186762       -20.28893        0.5186765       -20.28895        0.3967955        127.9381
4.8324                 0.3952717        126.0592        0.5098254       -21.92249        0.5098257       -21.92251        0.3952721        126.0592
4.8338                 0.3934046        124.1947        0.5007769        -23.5423        0.5007772       -23.54233        0.3934049        124.1946
4.8352                 0.3911981        122.3453        0.4915501       -25.14733        0.4915504       -25.14736        0.3911983        122.3452
4.8366                 0.3886578        120.5115        0.4821647        -26.7366         0.482165       -26.73663         0.388658        120.5114
4.838                  0.3857897        118.6939        0.4726406       -28.30924        0.4726408       -28.30927        0.3857899        118.6939
4.8394                 0.3826012        116.8933        0.4629974       -29.86447        0.4629977       -29.86451        0.3826013        116.8932
4.8408                 0.3791003        115.1103        0.4532547       -31.40165        0.4532549        -31.4017        0.3791003        115.1102
4.8422                  0.375296        113.3456        0.4434312       -32.92025        0.4434314       -32.92029        0.3752959        113.3456
4.8436                 0.3711981        111.5999        0.4335453       -34.41988        0.4335454       -34.41993        0.3711981        111.5998
4.845                  0.3668177        109.8738         0.423614       -35.90032        0.4236141       -35.90038        0.3668175        109.8738
4.8464                 0.3621662        108.1679        0.4136537       -37.36149        0.4136537       -37.36154        0.3621659        108.1679
4.8478                 0.3572556        106.4828        0.4036791       -38.80348        0.4036792       -38.80353        0.3572554        106.4828
4.8492                 0.3520989        104.8188        0.3937036       -40.22653        0.3937036       -40.22658        0.3520985        104.8189
4.8506                 0.3467087        103.1763         0.383739       -41.63103         0.383739       -41.63107        0.3467084        103.1763
4.852                  0.3410984        101.5554        0.3737952       -43.01754        0.3737952       -43.01759         0.341098        101.5554
4.8534                 0.3352807        99.95593        0.3638803       -44.38673        0.3638803       -44.38678        0.3352803        99.95598
4.8548                  0.329268        98.37775        0.3540004       -45.73938        0.3540003       -45.73944        0.3292676        98.37782
4.8562                 0.3230721        96.82037        0.3441594       -47.07636        0.3441594        -47.0764        0.3230716        96.82045
4.8576                 0.3167037        95.28308        0.3343597       -48.39856        0.3343596        -48.3986        0.3167033        95.28319
4.859                  0.3101722        93.76495        0.3246012       -49.70685        0.3246011        -49.7069        0.3101718        93.76508
4.8604                 0.3034854        92.26483         0.314882       -51.00208         0.314882       -51.00212         0.303485        92.26496
4.8618                 0.2966493        90.78131        0.3051989       -52.28489        0.3051988       -52.28494        0.2966489        90.78145
4.8632                 0.2896677        89.31279        0.2955467       -53.55581        0.2955466       -53.55586        0.2896675        89.31296
4.8646                 0.2825425        87.85757        0.2859189       -54.81501        0.2859188       -54.81504        0.2825423        87.85777
4.866                  0.2752728        86.41378        0.2763082       -56.06226        0.2763081       -56.06231        0.2752726        86.41396
4.8674                 0.2678554        84.97949        0.2667063       -57.29688        0.2667062       -57.29692        0.2678553        84.97969
4.8688                 0.2602847        83.55285        0.2571047       -58.51751        0.2571046       -58.51754        0.2602847        83.55307
4.8702                 0.2525529        82.13211        0.2474949       -59.72203        0.2474947       -59.72207        0.2525528        82.13234
4.8716                 0.2446495        80.71576        0.2378685       -60.90741        0.2378684       -60.90744        0.2446496        80.71599