! TOUCHSTONE file generated by CST MICROWAVE STUDIO
! Date and time: Mon Dec  2 05:46:50 2024
! Project name: test_tuning.cst
! Parameters = {airCoaxOuterDiameter=3; chamferAngle=45; chamferWidth=24; connectorLength=10; drillingHoleDiameter=4.1; feedLength=120; flareDiameter=130; flareLength=70; gratingDistance=0; gratingGap=1.90274; outletLength=30; polarizerLength=134; probe1Diameter=1.3; probe1Distance=14; probe1Length=12; probe2Diameter=1.3; probe2Distance=0; probe2Length=12; probeLength=12; smaInnerDiameter=1.3; smaOuterDiameter=4.1; transitionCoefficient=1.33; waveguideFeedLength=30; waveguideSide=50; waveguideThickness=3; wireCount=25; wireDiameter=1.17699}
! Header version: 2024
! Port assignment regex: !\s*Touchstone port\s*([0-9]+)\s*=\s*(CST MWS port|CST DES external port|CST DES block port)\s*(.+)\s* \(\"(.*)\"\)(\s*mode\s*([0-9]+))?.*
! Touchstone port assignment:
! Touchstone port 1 = CST MWS port 1 ("Input1")
! Touchstone port 2 = CST MWS port 2 ("Input2")
# GHz S MA R 50
4.6                    0.3750249        47.86886        0.2794952        112.5462         0.279495        112.5462        0.3750244         47.8689
4.6014                 0.3714507        46.97627        0.2817798        112.0517        0.2817796        112.0517        0.3714501        46.97634
4.6028                 0.3678477        46.07025        0.2841157        111.5618        0.2841155        111.5619        0.3678472        46.07033
4.6042                 0.3642149         45.1497        0.2865119        111.0736        0.2865116        111.0736        0.3642145         45.1498
4.6056                 0.3605502        44.21355        0.2889736        110.5836        0.2889733        110.5837        0.3605498        44.21367
4.607                  0.3568509        43.26079        0.2915016        110.0886        0.2915014        110.0887        0.3568506        43.26092
4.6084                 0.3531139        42.29051        0.2940928        109.5854        0.2940926        109.5855        0.3531138        42.29063
4.6098                 0.3493359        41.30189        0.2967398        109.0713        0.2967397        109.0713        0.3493359        41.30202
4.6112                 0.3455136        40.29424        0.2994322         108.544         0.299432         108.544        0.3455138        40.29435
4.6126                 0.3416442        39.26696        0.3021565        108.0019        0.3021564         108.002        0.3416444        39.26707
4.614                  0.3377252         38.2196        0.3048976        107.4443        0.3048975        107.4444        0.3377255        38.21968
4.6154                  0.333755        37.15173        0.3076394        106.8711        0.3076394        106.8712        0.3337555        37.15179
4.6168                  0.329733        36.06301         0.310366         106.283         0.310366        106.2831        0.3297335        36.06305
4.6182                 0.3256595        34.95313        0.3130624        105.6813        0.3130624        105.6813          0.32566        34.95314
4.6196                 0.3215359        33.82172        0.3157155        105.0678        0.3157156        105.0679        0.3215364         33.8217
4.621                  0.3173648        32.66835        0.3183149         104.445         0.318315         104.445        0.3173652         32.6683
4.6224                 0.3131494        31.49247        0.3208533        103.8153        0.3208535        103.8154        0.3131497        31.49239
4.6238                 0.3088942        30.29336        0.3233271        103.1817        0.3233273        103.1817        0.3088944        30.29325
4.6252                 0.3046041        29.07009        0.3257363        102.5466        0.3257364        102.5467        0.3046041        29.06996
4.6266                 0.3002845        27.82148        0.3280842        101.9128        0.3280843        101.9128        0.3002844        27.82134
4.628                  0.2959411        26.54609        0.3303779        101.2822         0.330378        101.2823        0.2959409        26.54594
4.6294                 0.2915797        25.24216        0.3326271        100.6568        0.3326271        100.6569        0.2915792          25.242
4.6308                 0.2872056        23.90764        0.3348435        100.0378        0.3348435        100.0378         0.287205        23.90749
4.6322                  0.282824        22.54017        0.3370403        99.42568        0.3370403        99.42571        0.2828232        22.54003
4.6336                 0.2784392        21.13709        0.3392315        98.82066        0.3392314        98.82068        0.2784383        21.13697
4.635                  0.2740552        19.69549        0.3414304         98.2222        0.3414303        98.22222        0.2740543        19.69538
4.6364                 0.2696751        18.21218        0.3436491        97.62925        0.3436491        97.62928        0.2696741        18.21209
4.6378                 0.2653012        16.68377        0.3458982        97.04038        0.3458981         97.0404        0.2653001        16.68371
4.6392                 0.2609351         15.1067        0.3481851        96.45378         0.348185        96.45382        0.2609339        15.10667
4.6406                  0.256578        13.47727        0.3505146        95.86753        0.3505145        95.86759        0.2565769        13.47727
4.642                  0.2522308        11.79169        0.3528879        95.27964        0.3528878        95.27968        0.2522297        11.79171
4.6434                  0.247894        10.04608        0.3553031        94.68823         0.355303        94.68829         0.247893        10.04613
4.6448                 0.2435683        8.236562         0.357755        94.09166        0.3577549        94.09173        0.2435674        8.236619
4.6462                 0.2392548        6.359223        0.3602357        93.48873        0.3602357        93.48879         0.239254        6.359291
4.6476                 0.2349552        4.410177        0.3627354        92.87863        0.3627354        92.87871        0.2349545        4.410249
4.649                  0.2306721        2.385561        0.3652426        92.26113        0.3652427        92.26122        0.2306714         2.38563
4.6504                 0.2264089       0.2815464        0.3677459        91.63658         0.367746        91.63665        0.2264084       0.2816079
4.6518                 0.2221709       -1.905646        0.3702339        91.00581         0.370234         91.0059        0.2221704       -1.905598
4.6532                 0.2179645       -4.179743         0.372697        90.37028        0.3726971        90.37035        0.2179641       -4.179713
4.6546                 0.2137979       -6.544401        0.3751277        89.73178        0.3751279        89.73185        0.2137975       -6.544393
4.656                  0.2096812       -9.003187        0.3775219        89.09251        0.3775222        89.09258        0.2096808       -9.003202
4.6574                  0.205626       -11.55954        0.3798791        88.45488        0.3798794        88.45493        0.2056256       -11.55958
4.6588                 0.2016461       -14.21672        0.3822031        87.82134        0.3822034         87.8214        0.2016457       -14.21679
4.6602                 0.1977571       -16.97773        0.3845022        87.19433        0.3845026        87.19437        0.1977567       -16.97784
4.6616                 0.1939762       -19.84526        0.3867896        86.57603          0.38679        86.57606        0.1939758       -19.84538
4.663                  0.1903226       -22.82147        0.3890824        85.96824        0.3890828        85.96826        0.1903221       -22.82162
4.6644                 0.1868166       -25.90796        0.3914019        85.37224        0.3914023        85.37227         0.186816       -25.90812
4.6658                 0.1834802       -29.10546        0.3937726        84.78873         0.393773        84.78873        0.1834796       -29.10565
4.6672                 0.1803363       -32.41376        0.3962216        84.21761        0.3962219        84.21763        0.1803356       -32.41396
4.6686                 0.1774086        -35.8314        0.3987771        83.65805        0.3987774        83.65805        0.1774078        -35.8316
4.67                    0.174721       -39.35545        0.4014679         83.1084        0.4014682         83.1084        0.1747202       -39.35566
4.6714                 0.1722976       -42.98136        0.4043218        82.56621        0.4043221        82.56618        0.1722968       -42.98157
4.6728                  0.170162        -46.7028        0.4073644        82.02825        0.4073646        82.02824        0.1701611       -46.70301
4.6742                 0.1683364       -50.51137        0.4106183        81.49072        0.4106184        81.49072        0.1683355       -50.51155
4.6756                 0.1668417       -54.39675        0.4141017        80.94929        0.4141018        80.94928        0.1668408       -54.39694
4.677                  0.1656964       -58.34666         0.417828        80.39925        0.4178281        80.39925        0.1656956       -58.34684
4.6784                 0.1649166       -62.34705        0.4218051         79.8358        0.4218051         79.8358        0.1649158        -62.3472
4.6798                  0.164515       -66.38232        0.4260349        79.25407        0.4260349        79.25407        0.1645143       -66.38244
4.6812                 0.1645008       -70.43575        0.4305134        78.64945        0.4305133        78.64945        0.1645001       -70.43587
4.6826                 0.1648797       -74.49003         0.435231         78.0176         0.435231        78.01761        0.1648791       -74.49011
4.684                  0.1656534       -78.52757        0.4401729        77.35476        0.4401728        77.35477        0.1656529       -78.52768
4.6854                 0.1668202       -82.53134        0.4453195        76.65768        0.4453195         76.6577        0.1668198       -82.53145
4.6868                  0.168375       -86.48509        0.4506477         75.9238        0.4506477        75.92381        0.1683747       -86.48521
4.6882                 0.1703099       -90.37402        0.4561313        75.15123        0.4561313        75.15124        0.1703098       -90.37412
4.6896                 0.1726148       -94.18495        0.4617422        74.33873        0.4617422        74.33875        0.1726147       -94.18506
4.691                  0.1752776        -97.9068        0.4674513        73.48571        0.4674514        73.48574        0.1752777       -97.90691
4.6924                 0.1782857       -101.5305        0.4732295        72.59219        0.4732295        72.59222        0.1782859       -101.5307
4.6938                 0.1816257       -105.0494        0.4790479        71.65863         0.479048        71.65866         0.181626       -105.0496
4.6952                 0.1852847       -108.4587        0.4848793        70.68596        0.4848795        70.68598         0.185285       -108.4588
4.6966                 0.1892502       -111.7558        0.4906983        69.67536        0.4906984        69.67538        0.1892506        -111.756
4.698                  0.1935109       -114.9402        0.4964812         68.6283        0.4964813        68.62832        0.1935114       -114.9404
4.6994                 0.1980567       -118.0129        0.5022072        67.54634        0.5022073        67.54636        0.1980572       -118.0131
4.7008                 0.2028786       -120.9765        0.5078574        66.43111        0.5078574        66.43113        0.2028792       -120.9767
4.7022                 0.2079693       -123.8349        0.5134154        65.28424        0.5134155        65.28424        0.2079698       -123.8352
4.7036                 0.2133219       -126.5932        0.5188672        64.10724        0.5188673        64.10724        0.2133224       -126.5935
4.705                  0.2189307       -129.2574        0.5242004        62.90157        0.5242004        62.90157        0.2189312       -129.2577
4.7064                 0.2247903        -131.834        0.5294038        61.66851        0.5294039        61.66851        0.2247907       -131.8343
4.7078                  0.230895       -134.3302        0.5344681        60.40919        0.5344682        60.40919        0.2308953       -134.3305
4.7092                 0.2372388       -136.7535         0.539384        59.12459         0.539384         59.1246        0.2372391       -136.7537
4.7106                 0.2438145       -139.1113        0.5441427        57.81553        0.5441427        57.81553        0.2438148       -139.1115
4.712                  0.2506139       -141.4111        0.5487356         56.4827        0.5487356         56.4827         0.250614       -141.4114
4.7134                 0.2576264       -143.6602        0.5531535        55.12667        0.5531535        55.12667        0.2576266       -143.6605
4.7148                   0.26484       -145.8656         0.557387        53.74794        0.5573869        53.74797        0.2648401       -145.8658
4.7162                 0.2722399       -148.0336        0.5614255        52.34698        0.5614254        52.34698        0.2722399       -148.0338
4.7176                 0.2798093       -150.1701         0.565258        50.92418         0.565258        50.92418        0.2798093       -150.1702
4.719                  0.2875287       -152.2803        0.5688727        49.47998        0.5688727        49.48001        0.2875287       -152.2805
4.7204                 0.2953769       -154.3689        0.5722571        48.01489        0.5722571        48.01492        0.2953769       -154.3691
4.7218                 0.3033303       -156.4398        0.5753982        46.52946        0.5753982        46.52949        0.3033303       -156.4399
4.7232                 0.3113638        -158.496        0.5782827        45.02433        0.5782827        45.02433        0.3113639       -158.4961
4.7246                 0.3194509       -160.5402        0.5808975        43.50021        0.5808975        43.50024         0.319451       -160.5403
4.726                  0.3275643       -162.5741        0.5832295        41.95796        0.5832295        41.95796        0.3275646       -162.5742
4.7274                 0.3356763       -164.5992        0.5852663        40.39851        0.5852665        40.39854        0.3356767       -164.5993
4.7288                 0.3437592       -166.6161        0.5869968        38.82296        0.5869969        38.82298        0.3437596       -166.6162
4.7302                 0.3517856       -168.6252        0.5884104        37.23234        0.5884105        37.23237        0.3517861       -168.6253
4.7316                 0.3597294       -170.6264        0.5894984        35.62794        0.5894986        35.62794        0.3597299       -170.6265
4.733                  0.3675653       -172.6194        0.5902535        34.01101        0.5902537        34.01104        0.3675659       -172.6195
4.7344                   0.37527       -174.6035        0.5906701        32.38282        0.5906703        32.38282        0.3752708       -174.6036
4.7358                  0.382822        -176.578        0.5907447        30.74473        0.5907449        30.74472        0.3828228       -176.5781
4.7372                 0.3902017       -178.5419        0.5904754        29.09802        0.5904757        29.09802        0.3902026        -178.542
4.7386                 0.3973919        179.5055        0.5898622        27.44403        0.5898624        27.44403        0.3973928        179.5054
4.74                   0.4043775        177.5654        0.5889066        25.78393        0.5889068        25.78394        0.4043783        177.5653
4.7414                 0.4111454        175.6385        0.5876121        24.11899        0.5876122          24.119        0.4111463        175.6384
4.7428                  0.417685        173.7257        0.5859833         22.4503        0.5859834        22.45031        0.4176858        173.7256
4.7442                 0.4239872        171.8276        0.5840262        20.77891        0.5840263        20.77892         0.423988        171.8275
4.7456                 0.4300448        169.9449        0.5817475        19.10578        0.5817476        19.10578        0.4300456        169.9448
4.747                  0.4358521        168.0779        0.5791551        17.43178        0.5791553        17.43178        0.4358528        168.0778
4.7484                 0.4414045        166.2271        0.5762572        15.75771        0.5762573        15.75771         0.441405         166.227
4.7498                 0.4466981        164.3926        0.5730625        14.08428        0.5730626        14.08428        0.4466986        164.3925
4.7512                   0.45173        162.5744        0.5695798        12.41217        0.5695798        12.41217        0.4517305        162.5743
4.7526                 0.4564975        160.7727         0.565818        10.74197        0.5658181        10.74197        0.4564979        160.7726
4.754                  0.4609981        158.9873        0.5617862        9.074262        0.5617862        9.074261        0.4609985        158.9872
4.7554                 0.4652293        157.2181        0.5574931        7.409604        0.5574932        7.409604        0.4652296         157.218
4.7568                 0.4691885         155.465        0.5529477        5.748555        0.5529477        5.748555        0.4691888        155.4649
4.7582                 0.4728731        153.7278        0.5481589        4.091685         0.548159        4.091686        0.4728734        153.7278
4.7596                 0.4762803        152.0067        0.5431358        2.439596        0.5431358        2.439598        0.4762805        152.0066
4.761                  0.4794071        150.3015        0.5378872       0.7929317        0.5378872       0.7929344        0.4794074        150.3014
4.7624                 0.4822509        148.6123         0.532423      -0.8476185         0.532423       -0.847615        0.4822513        148.6123
4.7638                 0.4848095        146.9395        0.5267532       -2.481313        0.5267532       -2.481309        0.4848098        146.9395
4.7652                 0.4870808        145.2833        0.5208884       -4.107361        0.5208884       -4.107356        0.4870812        145.2833
4.7666                  0.489064        143.6441        0.5148402        -5.72493        0.5148402       -5.724925        0.4890644        143.6441
4.768                  0.4907589        142.0226        0.5086211       -7.333158         0.508621       -7.333153        0.4907594        142.0226
4.7694                  0.492167        140.4193        0.5022442       -8.931175        0.5022442       -8.931169        0.4921676        140.4193
4.7708                 0.4932912        138.8351        0.4957242       -10.51812        0.4957241       -10.51812        0.4932918        138.8351
4.7722                 0.4941363        137.2706        0.4890762       -12.09317        0.4890762       -12.09317        0.4941369        137.2706
4.7736                 0.4947085        135.7267        0.4823167       -13.65559        0.4823167       -13.65559        0.4947092        135.7267
4.775                  0.4950165        134.2042        0.4754626       -15.20473        0.4754626       -15.20473        0.4950172        134.2042
4.7764                 0.4950705        132.7038        0.4685316       -16.74008        0.4685316       -16.74008        0.4950712        132.7038
4.7778                 0.4948827        131.2262        0.4615413       -18.26132        0.4615413       -18.26132        0.4948835        131.2262
4.7792                 0.4944669        129.7718        0.4545098        -19.7683        0.4545098        -19.7683        0.4944677        129.7717
4.7806                 0.4938382        128.3409        0.4474545       -21.26112        0.4474545       -21.26112        0.4938389        128.3408
4.782                  0.4930125        126.9337        0.4403922       -22.74011        0.4403922        -22.7401        0.4930131        126.9336
4.7834                 0.4920065          125.55        0.4333388       -24.20584        0.4333388       -24.20583         0.492007          125.55
4.7848                 0.4908368        124.1896        0.4263086       -25.65915        0.4263085       -25.65914        0.4908374        124.1896
4.7862                 0.4895199        122.8518        0.4193142       -27.10111        0.4193142       -27.10109        0.4895204        122.8518
4.7876                 0.4880711        121.5357        0.4123666       -28.53298        0.4123665       -28.53298        0.4880715        121.5357
4.789                  0.4865047        120.2403        0.4054743       -29.95626        0.4054743       -29.95625         0.486505        120.2403
4.7904                 0.4848328        118.9643        0.3986439       -31.37254        0.3986438       -31.37253        0.4848331        118.9643
4.7918                 0.4830659        117.7063        0.3918795       -32.78349        0.3918795       -32.78348        0.4830661        117.7063
4.7932                 0.4812119        116.4647        0.3851836       -34.19086        0.3851835       -34.19085        0.4812121        116.4647
4.7946                 0.4792762        115.2379        0.3785562       -35.59633        0.3785561       -35.59631        0.4792764        115.2379
4.796                   0.477262        114.0244        0.3719961       -37.00151         0.371996       -37.00149        0.4772621        114.0243
4.7974                 0.4751698        112.8225        0.3655005       -38.40787        0.3655004       -38.40785        0.4751699        112.8225
4.7988                  0.472998        111.6309         0.359066       -39.81669        0.3590659       -39.81668        0.4729982        111.6309
4.8002                 0.4707435        110.4483        0.3526885       -41.22907        0.3526885       -41.22904        0.4707437        110.4483
4.8016                 0.4684015        109.2738         0.346364        -42.6458         0.346364       -42.64577        0.4684017        109.2738
4.803                  0.4659663        108.1065        0.3400889       -44.06749        0.3400889       -44.06746        0.4659665        108.1065
4.8044                 0.4634319        106.9458        0.3338603       -45.49451        0.3338603       -45.49448        0.4634322        106.9459
4.8058                 0.4607925        105.7917        0.3276765       -46.92699        0.3276766       -46.92696        0.4607929        105.7917
4.8072                 0.4580429        104.6439        0.3215374       -48.36493        0.3215375        -48.3649        0.4580433        104.6439
4.8086                 0.4551788        103.5028        0.3154442        -49.8082        0.3154443       -49.80818        0.4551793        103.5028
4.81                   0.4521978        102.3687        0.3093999       -51.25667           0.3094       -51.25664        0.4521983        102.3687
4.8114                 0.4490989        101.2422        0.3034089       -52.71023         0.303409        -52.7102        0.4490994        101.2422
4.8128                 0.4458832        100.1238        0.2974773        -54.1689        0.2974774       -54.16887        0.4458838        100.1238
4.8142                 0.4425539        99.01424        0.2916123       -55.63294        0.2916124       -55.63291        0.4425544        99.01425
4.8156                 0.4391156        97.91395        0.2858221       -57.10288        0.2858221       -57.10285        0.4391161        97.91395
4.817                  0.4355749        96.82335        0.2801151       -58.57969        0.2801152       -58.57966        0.4355754        96.82336
4.8184                 0.4319395        95.74269        0.2745003       -60.06468        0.2745004       -60.06466          0.43194         95.7427
4.8198                 0.4282179        94.67192         0.268986       -61.55975        0.2689861       -61.55973        0.4282183        94.67193
4.8212                 0.4244187        93.61075        0.2635797       -63.06723        0.2635798       -63.06721        0.4244191        93.61074
4.8226                 0.4205505        92.55853        0.2582878       -64.59002        0.2582879       -64.58999        0.4205508        92.55853
4.824                  0.4166204        91.51433        0.2531151       -66.13146        0.2531152       -66.13144        0.4166207        91.51433
4.8254                 0.4126346         90.4769        0.2480646       -67.69535        0.2480646       -67.69533        0.4126348         90.4769
4.8268                 0.4085965        89.44475        0.2431372       -69.28582        0.2431372       -69.28581        0.4085967        89.44475
4.8282                 0.4045076        88.41611        0.2383321        -70.9073        0.2383321       -70.90728        0.4045077        88.41611
4.8296                 0.4003662        87.38916        0.2336463       -72.56432        0.2336463       -72.56429        0.4003663        87.38917
4.831                  0.3961677        86.36191        0.2290754       -74.26146        0.2290754       -74.26145        0.3961678        86.36194
4.8324                 0.3919046         85.3325        0.2246134       -76.00326        0.2246135       -76.00323        0.3919047        85.33253
4.8338                 0.3875664        84.29914        0.2202536       -77.79397        0.2202537       -77.79396        0.3875664        84.29917
4.8352                 0.3831401        83.26029        0.2159888       -79.63769        0.2159888       -79.63767        0.3831401        83.26033
4.8366                 0.3786107        82.21471        0.2118118       -81.53806        0.2118118       -81.53803        0.3786108        82.21477
4.838                  0.3739616        81.16164         0.207716       -83.49838        0.2077161       -83.49835        0.3739616        81.16171
4.8394                 0.3691755        80.10067        0.2036962       -85.52152        0.2036963       -85.52149        0.3691756        80.10074
4.8408                 0.3642347        79.03203        0.1997486       -87.60997        0.1997487       -87.60995        0.3642349        79.03209
4.8422                 0.3591226        77.95639        0.1958715       -89.76592        0.1958716        -89.7659        0.3591228        77.95647
4.8436                 0.3538236        76.87506        0.1920655       -91.99125        0.1920655       -91.99123        0.3538238        76.87512
4.845                  0.3483241        75.78982        0.1883336       -94.28771        0.1883337        -94.2877        0.3483243        75.78989
4.8464                 0.3426131          74.703        0.1846817         -96.657        0.1846817       -96.65699        0.3426133        74.70306
4.8478                 0.3366825        73.61737        0.1811179       -99.10095        0.1811179       -99.10092        0.3366828        73.61743
4.8492                 0.3305276        72.53609        0.1776529       -101.6215         0.177653       -101.6215        0.3305279        72.53614
4.8506                 0.3241467        71.46265        0.1742996       -104.2211        0.1742997       -104.2211        0.3241469        71.46271
4.852                  0.3175415        70.40077        0.1710727       -106.9026        0.1710727       -106.9026        0.3175418        70.40083
4.8534                 0.3107169        69.35433        0.1679882       -109.6692        0.1679882       -109.6692        0.3107171        69.35437
4.8548                   0.30368        68.32727        0.1650633        -112.525        0.1650633        -112.525        0.3036801        68.32733
4.8562                 0.2964402        67.32363        0.1623153       -115.4745        0.1623153       -115.4745        0.2964404        67.32367
4.8576                 0.2890085        66.34732         0.159762       -118.5227         0.159762       -118.5227        0.2890086        66.34735
4.859                  0.2813964        65.40226        0.1574203       -121.6752        0.1574203       -121.6751        0.2813964        65.40229
4.8604                 0.2736153        64.49234        0.1553064       -124.9375        0.1553064       -124.9375        0.2736152        64.49239
4.8618                 0.2656758        63.62151        0.1534352       -128.3156        0.1534351       -128.3156        0.2656757        63.62155
4.8632                 0.2575871        62.79385        0.1518197       -131.8147        0.1518197       -131.8147         0.257587         62.7939
4.8646                 0.2493565        62.01382        0.1504716       -135.4397        0.1504715       -135.4396        0.2493564        62.01388
4.866                  0.2409887        61.28653        0.1493997       -139.1943        0.1493997       -139.1943        0.2409885         61.2866
4.8674                 0.2324861        60.61811        0.1486112       -143.0812        0.1486112       -143.0812        0.2324859         60.6182
4.8688                 0.2238487        60.01622        0.1481104       -147.1013        0.1481104       -147.1013        0.2238485        60.01632
4.8702                 0.2150748         59.4907        0.1478991       -151.2538         0.147899       -151.2538        0.2150746        59.49082
4.8716                 0.2061621        59.05438        0.1479763       -155.5359        0.1479762       -155.5358        0.2061619        59.05452