! TOUCHSTONE file generated by CST MICROWAVE STUDIO
! Date and time: Sun Dec  1 17:17:01 2024
! Project name: test_tuning.cst
! Parameters = {airCoaxOuterDiameter=3; chamferAngle=45; chamferWidth=24; connectorLength=10; drillingHoleDiameter=4.1; feedLength=60; flareDiameter=130; flareLength=70; gratingDistance=0; gratingGap=1.90274; outletLength=30; polarizerLength=88; probe1Diameter=1.3; probe1Distance=14; probe1Length=12; probe2Diameter=1.3; probe2Distance=0; probe2Length=12; probeLength=12; smaInnerDiameter=1.3; smaOuterDiameter=4.1; transitionCoefficient=1.33; waveguideFeedLength=30; waveguideSide=50; waveguideThickness=3; wireCount=25; wireDiameter=1.17699}
! Header version: 2024
! Port assignment regex: !\s*Touchstone port\s*([0-9]+)\s*=\s*(CST MWS port|CST DES external port|CST DES block port)\s*(.+)\s* \(\"(.*)\"\)(\s*mode\s*([0-9]+))?.*
! Touchstone port assignment:
! Touchstone port 1 = CST MWS port 1 ("Input1")
! Touchstone port 2 = CST MWS port 2 ("Input2")
# GHz S MA R 50
4.6                     0.237028       -157.6869        0.6035563        69.18433        0.6035567        69.18435        0.2370282       -157.6871
4.6014                 0.2441956       -158.7554        0.6056689        68.26471        0.6056693        68.26471        0.2441957       -158.7556
4.6028                 0.2513659       -159.8213        0.6076985        67.33561         0.607699        67.33561        0.2513661       -159.8215
4.6042                 0.2585357       -160.8848        0.6096395        66.39709          0.60964        66.39707        0.2585359       -160.8849
4.6056                 0.2657021       -161.9461        0.6114854        65.44925        0.6114858        65.44925        0.2657023       -161.9462
4.607                  0.2728619       -163.0053        0.6132302        64.49229        0.6132305        64.49229        0.2728621       -163.0054
4.6084                 0.2800124       -164.0628        0.6148679        63.52641        0.6148683         63.5264        0.2800126       -164.0629
4.6098                 0.2871507       -165.1187        0.6163929        62.55188        0.6163933        62.55187         0.287151       -165.1188
4.6112                 0.2942741       -166.1734        0.6177995        61.56901           0.6178        61.56898        0.2942743       -166.1736
4.6126                 0.3013796       -167.2272        0.6190828        60.57813        0.6190831        60.57811        0.3013799       -167.2273
4.614                  0.3084643       -168.2803        0.6202379        59.57963        0.6202382        59.57962        0.3084646       -168.2804
4.6154                 0.3155252       -169.3331        0.6212604        58.57393        0.6212607        58.57391        0.3155254       -169.3332
4.6168                 0.3225587       -170.3859        0.6221467        57.56148        0.6221469        57.56145         0.322559        -170.386
4.6182                 0.3295616       -171.4389        0.6228932        56.54269        0.6228934        56.54268        0.3295619        -171.439
4.6196                   0.33653       -172.4925        0.6234974        55.51808        0.6234976        55.51805        0.3365303       -172.4926
4.621                    0.34346        -173.547        0.6239571        54.48809        0.6239572        54.48808        0.3434602       -173.5471
4.6224                 0.3503471       -174.6026        0.6242706        53.45322        0.6242707        53.45321        0.3503473       -174.6027
4.6238                 0.3571869       -175.6595        0.6244369        52.41396         0.624437        52.41394        0.3571872       -175.6596
4.6252                 0.3639745        -176.718        0.6244554        51.37077        0.6244554        51.37075        0.3639747       -176.7181
4.6266                 0.3707047       -177.7783        0.6243263        50.32411        0.6243263        50.32409        0.3707049       -177.7784
4.628                  0.3773721       -178.8403          0.62405        49.27443          0.62405        49.27441        0.3773724       -178.8404
4.6294                  0.383971       -179.9043        0.6236275        48.22216        0.6236276        48.22214        0.3839712       -179.9044
4.6308                 0.3904956        179.0298        0.6230605         47.1677        0.6230605        47.16768        0.3904958        179.0297
4.6322                 0.3969397        177.9619        0.6223506        46.11142        0.6223506        46.11141          0.39694        177.9619
4.6336                 0.4032973        176.8922        0.6215002        45.05368        0.6215001        45.05367        0.4032975        176.8921
4.635                  0.4095618        175.8207        0.6205115        43.99481        0.6205115        43.99481         0.409562        175.8206
4.6364                 0.4157271        174.7476        0.6193875        42.93508        0.6193875        42.93507        0.4157274        174.7475
4.6378                 0.4217869        173.6731        0.6181311        41.87475         0.618131        41.87475        0.4217872         173.673
4.6392                 0.4277348        172.5974        0.6167453        40.81405        0.6167452        40.81405        0.4277351        172.5974
4.6406                 0.4335647        171.5209        0.6152331        39.75317         0.615233        39.75318         0.433565        171.5208
4.642                  0.4392707        170.4438        0.6135979        38.69227         0.613598        38.69228        0.4392709        170.4438
4.6434                 0.4448469        169.3666         0.611843         37.6315         0.611843        37.63151        0.4448471        169.3665
4.6448                 0.4502879        168.2896        0.6099714        36.57094        0.6099714        36.57096        0.4502882        168.2896
4.6462                 0.4555887        167.2132        0.6079861        35.51071        0.6079861        35.51072         0.455589        167.2132
4.6476                 0.4607444         166.138        0.6058903        34.45082        0.6058903        34.45084        0.4607447        166.1379
4.649                  0.4657508        165.0643        0.6036866        33.39136        0.6036866        33.39137        0.4657512        165.0642
4.6504                  0.470604        163.9926        0.6013778        32.33233        0.6013778        32.33235        0.4706043        163.9926
4.6518                 0.4753006        162.9235        0.5989664        31.27374        0.5989664        31.27376        0.4753009        162.9234
4.6532                 0.4798376        161.8573        0.5964547        30.21561        0.5964548        30.21563         0.479838        161.8573
4.6546                 0.4842129        160.7946        0.5938451        29.15792        0.5938452        29.15794        0.4842134        160.7946
4.656                  0.4884247        159.7359        0.5911394        28.10068        0.5911394        28.10071        0.4884251        159.7359
4.6574                 0.4924714        158.6816        0.5883394        27.04389        0.5883395        27.04391         0.492472        158.6816
4.6588                 0.4963527        157.6321         0.585447        25.98754        0.5854471        25.98756        0.4963532        157.6321
4.6602                 0.5000681        156.5879        0.5824638        24.93165        0.5824639        24.93167        0.5000685        156.5879
4.6616                 0.5036178        155.5494        0.5793912        23.87623        0.5793914        23.87625        0.5036184        155.5494
4.663                  0.5070028         154.517        0.5762309        22.82131         0.576231        22.82133        0.5070033        154.5169
4.6644                 0.5102241        153.4909        0.5729842        21.76694        0.5729843        21.76695        0.5102246        153.4908
4.6658                 0.5132833        152.4714        0.5696525        20.71316        0.5696527        20.71317        0.5132838        152.4714
4.6672                 0.5161823        151.4589        0.5662375        19.66005        0.5662377        19.66006        0.5161829        151.4589
4.6686                 0.5189234        150.4536        0.5627407        18.60769        0.5627408         18.6077         0.518924        150.4536
4.67                    0.521509        149.4556        0.5591637        17.55618        0.5591639        17.55618        0.5215095        149.4556
4.6714                 0.5239416        148.4651        0.5555085        16.50562        0.5555086        16.50562        0.5239422        148.4651
4.6728                 0.5262242        147.4823        0.5517769        15.45613        0.5517771        15.45613        0.5262249        147.4822
4.6742                 0.5283596        146.5071        0.5479711        14.40784        0.5479713        14.40784        0.5283601         146.507
4.6756                 0.5303507        145.5396        0.5440936        13.36087        0.5440937        13.36087        0.5303512        145.5396
4.677                  0.5322002        144.5799        0.5401468        12.31536         0.540147        12.31536        0.5322007        144.5798
4.6784                 0.5339108        143.6279        0.5361336        11.27144        0.5361338        11.27144        0.5339113        143.6278
4.6798                 0.5354852        142.6835        0.5320571        10.22922        0.5320573        10.22922        0.5354857        142.6835
4.6812                 0.5369259        141.7468        0.5279204        9.188816        0.5279205        9.188811        0.5369264        141.7468
4.6826                  0.538235        140.8176         0.523727         8.15032        0.5237272        8.150316        0.5382355        140.8176
4.684                  0.5394145        139.8959        0.5194806        7.113805        0.5194807          7.1138         0.539415        139.8958
4.6854                 0.5404661        138.9815        0.5151849        6.079314         0.515185        6.079308        0.5404666        138.9814
4.6868                 0.5413912        138.0743        0.5108438        5.046864        0.5108438        5.046858        0.5413917        138.0743
4.6882                 0.5421911        137.1744        0.5064613        4.016433        0.5064614        4.016426        0.5421915        137.1744
4.6896                 0.5428665        136.2816        0.5020415        2.987959        0.5020416        2.987953         0.542867        136.2816
4.691                  0.5434182        135.3959        0.4975885        1.961336        0.4975886         1.96133        0.5434185        135.3959
4.6924                 0.5438465        134.5172        0.4931062        0.936411        0.4931063       0.9364059        0.5438469        134.5172
4.6938                 0.5441517        133.6457        0.4885987     -0.08702094        0.4885987     -0.08702538         0.544152        133.6456
4.6952                 0.5443338        132.7812        0.4840695       -1.109218        0.4840695       -1.109221        0.5443342        132.7812
4.6966                 0.5443928         131.924        0.4795222       -2.130493        0.4795222       -2.130496        0.5443932        131.9239
4.698                  0.5443286        131.0741        0.4749602       -3.151216        0.4749601       -3.151217         0.544329         131.074
4.6994                 0.5441413        130.2317        0.4703863        -4.17181        0.4703863       -4.171809        0.5441416        130.2317
4.7008                 0.5438306         129.397        0.4658032       -5.192754        0.4658031       -5.192751        0.5438309         129.397
4.7022                 0.5433969        128.5704         0.461213       -6.214597        0.4612129       -6.214597        0.5433973        128.5704
4.7036                 0.5428405        127.7522        0.4566174       -7.237882        0.4566174       -7.237882        0.5428408        127.7521
4.705                  0.5421622        126.9426        0.4520176       -8.263239        0.4520176        -8.26324        0.5421625        126.9426
4.7064                  0.541363        126.1422        0.4474143       -9.291383        0.4474143       -9.291357        0.5413633        126.1422
4.7078                 0.5404444        125.3514        0.4428077       -10.32294        0.4428077       -10.32294        0.5404448        125.3514
4.7092                 0.5394084        124.5708        0.4381973       -11.35869        0.4381973       -11.35869        0.5394088        124.5708
4.7106                 0.5382577        123.8008        0.4335821       -12.39936        0.4335821       -12.39935         0.538258        123.8008
4.712                  0.5369954        123.0421        0.4289606       -13.44572        0.4289606        -13.4457        0.5369958        123.0421
4.7134                 0.5356254        122.2952        0.4243306       -14.49851        0.4243306       -14.49849        0.5356258        122.2952
4.7148                 0.5341524        121.5608        0.4196897       -15.55849        0.4196897       -15.55848        0.5341529        121.5608
4.7162                 0.5325818        120.8396        0.4150346       -16.62641        0.4150347       -16.62639        0.5325822        120.8396
4.7176                 0.5309195         120.132        0.4103619       -17.70297         0.410362       -17.70295        0.5309199         120.132
4.719                  0.5291725        119.4388        0.4056676       -18.78885        0.4056677       -18.78884        0.5291729        119.4388
4.7204                 0.5273484        118.7605        0.4009474       -19.88471        0.4009475       -19.88469        0.5273488        118.7605
4.7218                 0.5254557        118.0976        0.3961969       -20.99111        0.3961969       -20.99109        0.5254561        118.0976
4.7232                 0.5235034        117.4507        0.3914111        -22.1086        0.3914112       -22.10858        0.5235039        117.4508
4.7246                 0.5215014        116.8204        0.3865852       -23.23765        0.3865853       -23.23763        0.5215018        116.8203
4.726                  0.5194599        116.2067        0.3817144       -24.37865        0.3817145       -24.37863        0.5194603        116.2067
4.7274                 0.5173899        115.6102        0.3767936       -25.53192        0.3767938        -25.5319        0.5173904        115.6102
4.7288                 0.5153028         115.031        0.3718181       -26.69771        0.3718182       -26.69769        0.5153033         115.031
4.7302                 0.5132102        114.4692        0.3667832       -27.87618        0.3667833       -27.87617        0.5132107        114.4692
4.7316                 0.5111241        113.9247        0.3616843       -29.06741        0.3616845        -29.0674        0.5111246        113.9247
4.733                  0.5090564        113.3974        0.3565177       -30.27137        0.3565178       -30.27136        0.5090569        113.3974
4.7344                 0.5070192        112.8871        0.3512793         -31.488        0.3512794       -31.48798        0.5070197        112.8871
4.7358                 0.5050243        112.3932        0.3459661       -32.71707        0.3459662       -32.71706        0.5050248        112.3932
4.7372                 0.5030832        111.9153        0.3405751       -33.95835        0.3405753       -33.95834        0.5030836        111.9153
4.7386                 0.5012069        111.4525        0.3351044       -35.21147        0.3351046       -35.21147        0.5012073        111.4525
4.74                   0.4994059        111.0041        0.3295523       -36.47601        0.3295524       -36.47601        0.4994063        111.0041
4.7414                 0.4976899         110.569        0.3239177       -37.75146        0.3239179       -37.75147        0.4976903         110.569
4.7428                  0.496068        110.1462        0.3182004       -39.03725        0.3182005       -39.03725        0.4960684        110.1462
4.7442                 0.4945477        109.7342        0.3124007       -40.33271        0.3124009       -40.33272        0.4945481        109.7342
4.7456                  0.493136        109.3319        0.3065198       -41.63714        0.3065199       -41.63715        0.4931364        109.3319
4.747                  0.4918383        108.9377        0.3005593       -42.94978        0.3005595       -42.94979        0.4918387        108.9377
4.7484                 0.4906591          108.55        0.2945218       -44.26981         0.294522       -44.26982        0.4906594          108.55
4.7498                 0.4896011        108.1673        0.2884104       -45.59635        0.2884105       -45.59636        0.4896014        108.1673
4.7512                 0.4886659        107.7879        0.2822287       -46.92849        0.2822289        -46.9285        0.4886662        107.7879
4.7526                 0.4878537        107.4102        0.2759813        -48.2653        0.2759815       -48.26531         0.487854        107.4102
4.754                  0.4871633        107.0324        0.2696733       -49.60581        0.2696734       -49.60583        0.4871636        107.0324
4.7554                 0.4865919        106.6529        0.2633101       -50.94902        0.2633103       -50.94904        0.4865922        106.6529
4.7568                 0.4861358        106.2702         0.256898       -52.29393        0.2568981       -52.29396        0.4861361        106.2702
4.7582                 0.4857897        105.8827        0.2504435       -53.63954        0.2504436       -53.63957        0.4857899        105.8827
4.7596                 0.4855472         105.489        0.2439536       -54.98485        0.2439537       -54.98487        0.4855475         105.489
4.761                   0.485401        105.0876        0.2374358       -56.32884        0.2374359       -56.32887        0.4854012        105.0876
4.7624                 0.4853425        104.6774        0.2308978       -57.67054        0.2308979       -57.67057        0.4853427        104.6774
4.7638                 0.4853627        104.2573        0.2243476       -59.00903        0.2243476       -59.00905        0.4853629        104.2573
4.7652                 0.4854515        103.8262        0.2177932       -60.34338        0.2177933       -60.34341        0.4854518        103.8262
4.7666                 0.4855987        103.3834        0.2112431       -61.67273        0.2112431       -61.67276        0.4855989        103.3834
4.768                  0.4857932        102.9282        0.2047055       -62.99629        0.2047056       -62.99632        0.4857934        102.9282
4.7694                 0.4860239        102.4599         0.198189       -64.31333         0.198189       -64.31336        0.4860241          102.46
4.7708                 0.4862797        101.9783        0.1917016       -65.62324        0.1917017       -65.62327        0.4862799        101.9783
4.7722                  0.486549        101.4831        0.1852517       -66.92546        0.1852518       -66.92549        0.4865492        101.4831
4.7736                 0.4868209         100.974        0.1788473        -68.2196        0.1788473       -68.21965        0.4868211         100.974
4.775                  0.4870843        100.4512        0.1724961       -69.50541        0.1724961       -69.50543        0.4870846        100.4512
4.7764                 0.4873288        99.91476        0.1662055       -70.78273        0.1662055       -70.78276        0.4873291        99.91479
4.7778                 0.4875442        99.36488        0.1599827       -72.05166        0.1599827       -72.05169        0.4875445         99.3649
4.7792                  0.487721        98.80197        0.1538344       -73.31246        0.1538345       -73.31248        0.4877213        98.80199
4.7806                 0.4878501        98.22639        0.1477669       -74.56564        0.1477669       -74.56568        0.4878504        98.22641
4.782                  0.4879233        97.63866        0.1417859       -75.81196         0.141786         -75.812        0.4879236        97.63871
4.7834                  0.487933        97.03942        0.1358968       -77.05247        0.1358968       -77.05253        0.4879333        97.03942
4.7848                 0.4878724        96.42917        0.1301042       -78.28861        0.1301042       -78.28865        0.4878726        96.42919
4.7862                 0.4877353        95.80868        0.1244122       -79.52208        0.1244122       -79.52214        0.4877356        95.80873
4.7876                 0.4875166        95.17862        0.1188245       -80.75514        0.1188245       -80.75518        0.4875169        95.17867
4.789                  0.4872119        94.53974        0.1133441       -81.99042        0.1133441       -81.99046        0.4872121        94.53977
4.7904                 0.4868174        93.89282        0.1079733       -83.23112        0.1079733       -83.23118        0.4868176        93.89285
4.7918                 0.4863302        93.23851         0.102714       -84.48116         0.102714        -84.4812        0.4863305        93.23854
4.7932                 0.4857484        92.57765       0.09756747       -85.74505       0.09756747        -85.7451        0.4857486        92.57771
4.7946                 0.4850704        91.91096       0.09253453       -87.02822       0.09253453       -87.02829        0.4850706        91.91098
4.796                  0.4842954        91.23913       0.08761548       -88.33706       0.08761547       -88.33714        0.4842957        91.23915
4.7974                 0.4834236        90.56287       0.08281023       -89.67912       0.08281022        -89.6792        0.4834238        90.56292
4.7988                 0.4824552        89.88285       0.07811838       -91.06334       0.07811835       -91.06342        0.4824555         89.8829
4.8002                 0.4813915        89.19974       0.07353927       -92.50036       0.07353926       -92.50044        0.4813917        89.19977
4.8016                 0.4802339        88.51409       0.06907216       -94.00284       0.06907214       -94.00292        0.4802341        88.51411
4.803                  0.4789844         87.8265       0.06471627       -95.58606       0.06471625       -95.58614        0.4789846        87.82652
4.8044                 0.4776453        87.13741       0.06047107       -97.26847       0.06047104       -97.26858        0.4776454        87.13745
4.8058                 0.4762191        86.44734       0.05633637        -99.0727       0.05633633       -99.07282        0.4762193        86.44738
4.8072                 0.4747089        85.75669        0.0523127       -101.0266       0.05231267       -101.0268         0.474709        85.75671
4.8086                 0.4731176        85.06581       0.04840162        -103.165       0.04840158       -103.1652        0.4731177        85.06585
4.81                   0.4714484        84.37508       0.04460617       -105.5319       0.04460613        -105.532        0.4714486        84.37512
4.8114                 0.4697048        83.68473       0.04093158        -108.183       0.04093154       -108.1832        0.4697049        83.68475
4.8128                 0.4678899        82.99499       0.03738614       -111.1907        0.0373861       -111.1908          0.46789        82.99502
4.8142                  0.466007        82.30607       0.03398248       -114.6481       0.03398244       -114.6483        0.4660072         82.3061
4.8156                 0.4640596        81.61809       0.03073948       -118.6765       0.03073944       -118.6767        0.4640598        81.61815
4.817                  0.4620508         80.9312       0.02768482       -123.4317       0.02768478       -123.4319        0.4620509        80.93124
4.8184                 0.4599835        80.24544       0.02485861       -129.1086       0.02485858       -129.1089        0.4599837        80.24546
4.8198                 0.4578609        79.56084       0.02231775       -135.9346       0.02231772       -135.9349         0.457861        79.56089
4.8212                 0.4556857        78.87744       0.02013999       -144.1352       0.02013997       -144.1356        0.4556858         78.8775
4.8226                 0.4534604        78.19522       0.01842383       -153.8451       0.01842383       -153.8455        0.4534605        78.19526
4.824                  0.4511876        77.51413       0.01727716       -164.9534       0.01727718       -164.9539        0.4511877        77.51417
4.8254                 0.4488694        76.83411       0.01678836       -176.9601       0.01678839       -176.9605        0.4488695        76.83417
4.8268                 0.4465079        76.15511       0.01698795        170.9764         0.016988         170.976         0.446508        76.15515
4.8282                  0.444105        75.47704       0.01782943        159.7208       0.01782949        159.7205        0.4441051        75.47709
4.8296                 0.4416623         74.7998       0.01920817        149.8226       0.01920824        149.8223        0.4416624        74.79986
4.831                  0.4391814         74.1233       0.02100086        141.4335       0.02100095        141.4333        0.4391815        74.12336
4.8324                 0.4366636        73.44745       0.02309585        134.4399       0.02309594        134.4397        0.4366637         73.4475
4.8338                   0.43411        72.77215       0.02540493        128.6221       0.02540502         128.622        0.4341102        72.77219
4.8352                 0.4315219         72.0973       0.02786297        123.7515       0.02786306        123.7514         0.431522        72.09735
4.8366                 0.4289001        71.42277       0.03042328        119.6302       0.03042338          119.63        0.4289002        71.42283
4.838                  0.4262454        70.74853       0.03305263        116.0992       0.03305273        116.0991        0.4262456        70.74858
4.8394                 0.4235588        70.07444       0.03572726        113.0355       0.03572735        113.0354         0.423559        70.07449
4.8408                 0.4208408        69.40046       0.03843004        110.3445       0.03843014        110.3444        0.4208409        69.40052
4.8422                 0.4180922        68.72648       0.04114854        107.9539       0.04114863        107.9538        0.4180924        68.72654
4.8436                 0.4153136        68.05244        0.0438736        105.8078       0.04387368        105.8078        0.4153137         68.0525
4.845                  0.4125055        67.37827       0.04659851        103.8632       0.04659859        103.8631        0.4125057        67.37833
4.8464                 0.4096687        66.70393       0.04931832         102.086       0.04931841         102.086        0.4096688        66.70398
4.8478                 0.4068036        66.02933       0.05202945        100.4497       0.05202952        100.4496        0.4068037        66.02938
4.8492                 0.4039109        65.35442       0.05472931        98.93273       0.05472938        98.93267         0.403911        65.35447
4.8506                 0.4009912        64.67914       0.05741616        97.51792       0.05741623        97.51784        0.4009913         64.6792
4.852                  0.3980451        64.00345       0.06008891        96.19118       0.06008897        96.19109        0.3980452         64.0035
4.8534                 0.3950731        63.32727       0.06274696        94.94087       0.06274703         94.9408        0.3950733        63.32732
4.8548                 0.3920761        62.65053        0.0653902        93.75736       0.06539025        93.75729        0.3920762        62.65058
4.8562                 0.3890545        61.97318       0.06801879        92.63247       0.06801884         92.6324        0.3890547        61.97323
4.8576                 0.3860091        61.29512       0.07063322        91.55927       0.07063328        91.55921        0.3860092        61.29516
4.859                  0.3829405        60.61629       0.07323422        90.53178       0.07323427        90.53173        0.3829405        60.61634
4.8604                 0.3798491        59.93658       0.07582267        89.54486       0.07582272         89.5448        0.3798491        59.93663
4.8618                 0.3767357         59.2559       0.07839959        88.59392       0.07839962        88.59386        0.3767357        59.25595
4.8632                 0.3736007        58.57414       0.08096608        87.67492       0.08096611        87.67487        0.3736007        58.57419
4.8646                 0.3704448        57.89119       0.08352331        86.78428       0.08352334        86.78423        0.3704448        57.89123
4.866                  0.3672684        57.20689       0.08607247        85.91874       0.08607249        85.91869        0.3672683        57.20694
4.8674                 0.3640718        56.52114       0.08861472        85.07539       0.08861476        85.07534        0.3640717        56.52119
4.8688                 0.3608554        55.83378       0.09115121        84.25152       0.09115123        84.25146        0.3608554        55.83383
4.8702                 0.3576196        55.14466       0.09368299        83.44471       0.09368301        83.44467        0.3576195         55.1447
4.8716                 0.3543645        54.45359       0.09621103        82.65272       0.09621105        82.65268        0.3543644        54.45364