! TOUCHSTONE file generated by CST MICROWAVE STUDIO
! Date and time: Sun Dec  1 17:17:00 2024
! Project name: test_tuning.cst
! Parameters = {airCoaxOuterDiameter=3; chamferAngle=45; chamferWidth=24; connectorLength=10; drillingHoleDiameter=4.1; feedLength=60; flareDiameter=130; flareLength=70; gratingDistance=0; gratingGap=1.90274; outletLength=30; polarizerLength=84; probe1Diameter=1.3; probe1Distance=14; probe1Length=12; probe2Diameter=1.3; probe2Distance=0; probe2Length=12; probeLength=12; smaInnerDiameter=1.3; smaOuterDiameter=4.1; transitionCoefficient=1.33; waveguideFeedLength=30; waveguideSide=50; waveguideThickness=3; wireCount=25; wireDiameter=1.17699}
! Header version: 2024
! Port assignment regex: !\s*Touchstone port\s*([0-9]+)\s*=\s*(CST MWS port|CST DES external port|CST DES block port)\s*(.+)\s* \(\"(.*)\"\)(\s*mode\s*([0-9]+))?.*
! Touchstone port assignment:
! Touchstone port 1 = CST MWS port 1 ("Input1")
! Touchstone port 2 = CST MWS port 2 ("Input2")
# GHz S MA R 50
4.6                    0.2259559       -154.8247        0.5913279        66.91164        0.5913279        66.91167        0.2259565       -154.8248
4.6014                  0.232986       -155.8696        0.5933443         66.0164        0.5933442        66.01645        0.2329866       -155.8698
4.6028                 0.2400551       -156.9159        0.5952809        65.11298        0.5952811        65.11303        0.2400557        -156.916
4.6042                 0.2471575       -157.9642        0.5971354        64.20143        0.5971356        64.20146        0.2471581       -157.9643
4.6056                 0.2542876        -159.015        0.5989047        63.28179        0.5989048        63.28182        0.2542882       -159.0151
4.607                  0.2614395       -160.0686        0.6005858        62.35413         0.600586        62.35417        0.2614401       -160.0687
4.6084                  0.268607       -161.1254        0.6021758        61.41854        0.6021759        61.41857        0.2686077       -161.1256
4.6098                 0.2757841       -162.1856        0.6036714         60.4751        0.6036716        60.47515        0.2757847       -162.1858
4.6112                 0.2829643       -163.2493        0.6050695        59.52392        0.6050696        59.52396        0.2829649       -163.2495
4.6126                 0.2901413       -164.3167        0.6063668        58.56511         0.606367        58.56514        0.2901419       -164.3168
4.614                  0.2973085       -165.3876        0.6075603        57.59879        0.6075605        57.59883        0.2973091       -165.3877
4.6154                 0.3044594       -166.4621        0.6086464        56.62512        0.6086466        56.62515          0.30446       -166.4622
4.6168                 0.3115873       -167.5401        0.6096222        55.64425        0.6096224        55.64428         0.311588       -167.5403
4.6182                 0.3186857       -168.6215        0.6104844        54.65636        0.6104846        54.65639        0.3186863       -168.6217
4.6196                  0.325748       -169.7061          0.61123        53.66165        0.6112302        53.66167        0.3257485       -169.7063
4.621                  0.3327674       -170.7938         0.611856        52.66032        0.6118562        52.66035         0.332768       -170.7939
4.6224                 0.3397375       -171.8843        0.6123597         51.6526        0.6123598        51.65263        0.3397381       -171.8844
4.6238                 0.3466519       -172.9774        0.6127382        50.63873        0.6127384        50.63876        0.3466525       -172.9775
4.6252                 0.3535041       -174.0728        0.6129893        49.61896        0.6129895        49.61899        0.3535046       -174.0729
4.6266                 0.3602878       -175.1703        0.6131104        48.59357        0.6131106         48.5936        0.3602883       -175.1704
4.628                  0.3669968       -176.2695        0.6130995        47.56283        0.6130997        47.56285        0.3669974       -176.2696
4.6294                 0.3736252       -177.3701        0.6129548        46.52703         0.612955        46.52706        0.3736257       -177.3702
4.6308                  0.380167       -178.4719        0.6126745        45.48648        0.6126748         45.4865        0.3801676        -178.472
4.6322                 0.3866168       -179.5745        0.6122575         44.4415        0.6122578        44.44151        0.3866173       -179.5746
4.6336                 0.3929687        179.3224        0.6117025        43.39239        0.6117028        43.39241        0.3929692        179.3223
4.635                  0.3992177        178.2192        0.6110088        42.33948         0.611009        42.33951        0.3992182        178.2191
4.6364                 0.4053587        177.1163        0.6101757        41.28313        0.6101759        41.28314        0.4053592        177.1161
4.6378                 0.4113868        176.0138        0.6092031        40.22364        0.6092034        40.22365        0.4113873        176.0137
4.6392                 0.4172975        174.9122         0.608091        39.16135        0.6080913        39.16137        0.4172979        174.9121
4.6406                 0.4230863        173.8119        0.6068397        38.09663          0.60684        38.09664        0.4230868        173.8118
4.642                  0.4287493        172.7131        0.6054499         37.0298        0.6054503         37.0298        0.4287498         172.713
4.6434                 0.4342826        171.6162        0.6039225        35.96117        0.6039228        35.96119        0.4342831        171.6161
4.6448                 0.4396828        170.5216        0.6022587        34.89112        0.6022589        34.89113        0.4396832        170.5215
4.6462                 0.4449465        169.4295        0.6004599        33.81995        0.6004602        33.81996        0.4449469        169.4294
4.6476                 0.4500708        168.3402        0.5985278        32.74799        0.5985281        32.74801        0.4500712        168.3401
4.649                   0.455053        167.2542        0.5964645        31.67557        0.5964648        31.67557        0.4550534        167.2541
4.6504                 0.4598907        166.1716        0.5942723        30.60297        0.5942726        30.60298        0.4598912        166.1715
4.6518                  0.464582        165.0928        0.5919535        29.53053        0.5919537        29.53053        0.4645823        165.0927
4.6532                 0.4691247        164.0181        0.5895108         28.4585        0.5895111        28.45851        0.4691251         164.018
4.6546                 0.4735176        162.9477        0.5869472        27.38719        0.5869474        27.38719         0.473518        162.9476
4.656                  0.4777593        161.8819        0.5842656        26.31686        0.5842659        26.31686        0.4777597        161.8818
4.6574                 0.4818488         160.821        0.5814693        25.24777        0.5814696        25.24776        0.4818492        160.8209
4.6588                 0.4857854        159.7651        0.5785617        24.18015         0.578562        24.18015        0.4857858        159.7651
4.6602                 0.4895687        158.7146        0.5755464        23.11425        0.5755466        23.11425         0.489569        158.7146
4.6616                 0.4931983        157.6697        0.5724269        22.05029        0.5724272        22.05028        0.4931986        157.6696
4.663                  0.4966742        156.6305        0.5692071        20.98846        0.5692073        20.98845        0.4966746        156.6304
4.6644                 0.4999969        155.5972        0.5658907        19.92896         0.565891        19.92895        0.4999971        155.5971
4.6658                 0.5031665        154.5701        0.5624819        18.87196         0.562482        18.87195        0.5031668          154.57
4.6672                 0.5061837        153.5492        0.5589844        17.81763        0.5589845        17.81762        0.5061841        153.5492
4.6686                 0.5090494        152.5348        0.5554023         16.7661        0.5554025         16.7661        0.5090497        152.5348
4.67                   0.5117646         151.527        0.5517398        15.71752        0.5517399        15.71751        0.5117649        151.5269
4.6714                 0.5143304        150.5259        0.5480008        14.67199        0.5480011        14.67199        0.5143306        150.5258
4.6728                 0.5167479        149.5316        0.5441897        13.62962        0.5441898        13.62961        0.5167482        149.5315
4.6742                 0.5190185        148.5442        0.5403105        12.59049        0.5403106        12.59048        0.5190189        148.5442
4.6756                 0.5211439        147.5638        0.5363672        11.55466        0.5363673        11.55465        0.5211442        147.5638
4.677                  0.5231254        146.5906        0.5323639        10.52219        0.5323641        10.52218        0.5231257        146.5905
4.6784                 0.5249647        145.6245        0.5283048        9.493101        0.5283049        9.493093         0.524965        145.6245
4.6798                 0.5266634        144.6657        0.5241939        8.467424        0.5241939        8.467416        0.5266637        144.6656
4.6812                 0.5282233        143.7141         0.520035        7.445151        0.5200351        7.445144        0.5282236        143.7141
4.6826                 0.5296461        142.7699        0.5158322        6.426266        0.5158323        6.426257        0.5296464        142.7699
4.684                  0.5309335         141.833        0.5115895         5.41073        0.5115895        5.410723        0.5309338         141.833
4.6854                 0.5320873        140.9036        0.5073103        4.398487        0.5073104        4.398479        0.5320876        140.9036
4.6868                 0.5331091        139.9816        0.5029986         3.38946        0.5029987        3.389454        0.5331094        139.9816
4.6882                 0.5340006        139.0671        0.4986581        2.383555        0.4986582        2.383549        0.5340009         139.067
4.6896                 0.5347635          138.16        0.4942921        1.380651        0.4942922        1.380646        0.5347639          138.16
4.691                  0.5353996        137.2605        0.4899043       0.3806101        0.4899043       0.3806052        0.5353999        137.2605
4.6924                 0.5359102        136.3686        0.4854978      -0.6167317        0.4854979      -0.6167363        0.5359106        136.3686
4.6938                 0.5362971        135.4843         0.481076        -1.61156         0.481076       -1.611565        0.5362974        135.4843
4.6952                 0.5365616        134.6077        0.4766419       -2.604089         0.476642       -2.604092        0.5365619        134.6077
4.6966                 0.5367054        133.7388        0.4721984       -3.594552        0.4721984       -3.594556        0.5367056        133.7388
4.698                  0.5367297        132.8777        0.4677484       -4.583214        0.4677484       -4.583219        0.5367301        132.8777
4.6994                 0.5366363        132.0245        0.4632944       -5.570367        0.4632945        -5.57037        0.5366366        132.0245
4.7008                 0.5364262        131.1792         0.458839       -6.556327         0.458839       -6.556331        0.5364267        131.1792
4.7022                 0.5361013         130.342        0.4543843       -7.541451        0.4543843       -7.541451        0.5361017         130.342
4.7036                 0.5356628        129.5131        0.4499324        -8.52608        0.4499325       -8.526079        0.5356632        129.5131
4.705                  0.5351122        128.6924        0.4454852       -9.510641        0.4454853       -9.510642        0.5351126        128.6924
4.7064                 0.5344511        127.8803        0.4410444       -10.49558        0.4410444       -10.49558        0.5344514        127.8803
4.7078                 0.5336811        127.0769        0.4366112       -11.48134        0.4366112       -11.48134        0.5336816        127.0769
4.7092                 0.5328042        126.2824        0.4321868       -12.46844        0.4321869       -12.46844        0.5328045        126.2824
4.7106                 0.5318219         125.497         0.427772       -13.45733        0.4277721       -13.45733        0.5318223         125.497
4.712                  0.5307365         124.721        0.4233676        -14.4486        0.4233677        -14.4486        0.5307369         124.721
4.7134                 0.5295501        123.9546        0.4189738        -15.4428        0.4189738       -15.44281        0.5295506        123.9546
4.7148                 0.5282652        123.1982        0.4145906       -16.44052        0.4145906       -16.44053        0.5282656        123.1982
4.7162                 0.5268844         122.452        0.4102177       -17.44237        0.4102177       -17.44238        0.5268848         122.452
4.7176                 0.5254105        121.7163        0.4058547       -18.44897        0.4058547       -18.44898        0.5254109        121.7163
4.719                  0.5238468        120.9916        0.4015006       -19.46097        0.4015006       -19.46097        0.5238472        120.9916
4.7204                 0.5221967        120.2781        0.3971544       -20.47901        0.3971545       -20.47902        0.5221971        120.2781
4.7218                  0.520464        119.5762        0.3928147       -21.50375        0.3928147       -21.50376        0.5204644        119.5762
4.7232                 0.5186529        118.8864        0.3884797       -22.53587        0.3884797       -22.53588        0.5186534        118.8864
4.7246                  0.516768        118.2089        0.3841475       -23.57603        0.3841476       -23.57603        0.5167684        118.2089
4.726                  0.5148138        117.5442        0.3798159       -24.62489        0.3798159        -24.6249        0.5148143        117.5442
4.7274                 0.5127959        116.8926        0.3754825       -25.68311        0.3754826       -25.68312        0.5127963        116.8926
4.7288                 0.5107197        116.2546        0.3711447       -26.75135        0.3711447       -26.75136        0.5107201        116.2546
4.7302                 0.5085914        115.6304        0.3667995       -27.83023        0.3667996       -27.83024        0.5085918        115.6304
4.7316                 0.5064171        115.0204        0.3624442       -28.92037        0.3624442       -28.92037        0.5064176        115.0204
4.733                  0.5042038        114.4249        0.3580754       -30.02236        0.3580754       -30.02237        0.5042043        114.4249
4.7344                 0.5019584        113.8442        0.3536901       -31.13678        0.3536902       -31.13678        0.5019589        113.8442
4.7358                 0.4996885        113.2785         0.349285       -32.26415         0.349285       -32.26415         0.499689        113.2786
4.7372                 0.4974017        112.7281        0.3448568       -33.40499        0.3448567         -33.405        0.4974022        112.7281
4.7386                  0.495106        112.1931        0.3404021       -34.55977        0.3404021       -34.55977        0.4951065        112.1931
4.74                   0.4928095        111.6734        0.3359177       -35.72893        0.3359177       -35.72894        0.4928099        111.6734
4.7414                 0.4905207        111.1692        0.3314005       -36.91287        0.3314005       -36.91287        0.4905212        111.1692
4.7428                  0.488248        110.6804        0.3268475       -38.11194        0.3268474       -38.11194        0.4882485        110.6804
4.7442                     0.486        110.2069        0.3222555       -39.32647        0.3222556       -39.32646        0.4860005        110.2069
4.7456                 0.4837852        109.7484        0.3176222       -40.55671        0.3176222       -40.55671        0.4837856        109.7484
4.747                  0.4816121        109.3046         0.312945       -41.80292        0.3129449       -41.80292        0.4816125        109.3046
4.7484                 0.4794889        108.8751        0.3082215       -43.06528        0.3082215       -43.06527        0.4794894        108.8751
4.7498                 0.4774239        108.4594          0.30345       -44.34395        0.3034501       -44.34394        0.4774243        108.4594
4.7512                 0.4754248        108.0569        0.2986289       -45.63902        0.2986289       -45.63902        0.4754252        108.0569
4.7526                 0.4734989        107.6669        0.2937568       -46.95062        0.2937568       -46.95061        0.4734993        107.6669
4.754                  0.4716533        107.2886        0.2888329       -48.27874         0.288833       -48.27874        0.4716537        107.2886
4.7554                 0.4698944         106.921        0.2838568       -49.62342        0.2838568       -49.62342        0.4698948         106.921
4.7568                 0.4682279        106.5633        0.2788282       -50.98466        0.2788283       -50.98465        0.4682283        106.5633
4.7582                  0.466659        106.2143        0.2737477       -52.36238        0.2737477       -52.36237        0.4666594        106.2143
4.7596                  0.465192        105.8728        0.2686158       -53.75656        0.2686158       -53.75655        0.4651924        105.8728
4.761                  0.4638305        105.5376        0.2634339        -55.1671        0.2634339        -55.1671        0.4638309        105.5376
4.7624                 0.4625773        105.2076        0.2582035       -56.59394        0.2582035       -56.59393        0.4625776        105.2076
4.7638                 0.4614341        104.8812        0.2529267       -58.03697        0.2529267       -58.03697        0.4614344        104.8812
4.7652                 0.4604017        104.5573        0.2476061        -59.4961        0.2476061        -59.4961         0.460402        104.5573
4.7666                 0.4594802        104.2343        0.2422445       -60.97129        0.2422446       -60.97129        0.4594804        104.2343
4.768                  0.4586684         103.911        0.2368454       -62.46245        0.2368454       -62.46245        0.4586687        103.9109
4.7694                 0.4579645        103.5858        0.2314125       -63.96954        0.2314125       -63.96954        0.4579648        103.5858
4.7708                 0.4573655        103.2575        0.2259498       -65.49256        0.2259498       -65.49256        0.4573658        103.2575
4.7722                 0.4568677        102.9247        0.2204619       -67.03155         0.220462       -67.03155        0.4568679        102.9247
4.7736                 0.4564663        102.5863        0.2149537        -68.5866        0.2149537        -68.5866        0.4564666        102.5863
4.775                  0.4561559        102.2409        0.2094303       -70.15784        0.2094303       -70.15784        0.4561561        102.2409
4.7764                 0.4559302        101.8873         0.203897        -71.7455        0.2038971        -71.7455        0.4559305        101.8873
4.7778                 0.4557823        101.5247        0.1983598       -73.34989        0.1983599       -73.34989        0.4557825        101.5247
4.7792                 0.4557046         101.152        0.1928245       -74.97142        0.1928245       -74.97142        0.4557048         101.152
4.7806                 0.4556892        100.7683        0.1872973       -76.61061        0.1872973       -76.61061        0.4556893        100.7683
4.782                  0.4557272         100.373        0.1817845       -78.26811        0.1817846       -78.26811        0.4557274         100.373
4.7834                 0.4558101        99.96525        0.1762927       -79.94472        0.1762927       -79.94472        0.4558102        99.96528
4.7848                 0.4559285        99.54471        0.1708284       -81.64142        0.1708284       -81.64142        0.4559286        99.54471
4.7862                 0.4560729        99.11085        0.1653984       -83.35939        0.1653984       -83.35939        0.4560731        99.11085
4.7876                 0.4562342        98.66345        0.1600094       -85.09999        0.1600094       -85.09999        0.4562343        98.66345
4.789                  0.4564027        98.20225        0.1546683       -86.86484        0.1546683       -86.86485        0.4564028        98.20225
4.7904                 0.4565691        97.72718        0.1493819       -88.65587        0.1493819       -88.65588        0.4565692        97.72718
4.7918                 0.4567241        97.23829         0.144157       -90.47524         0.144157       -90.47524        0.4567243        97.23832
4.7932                 0.4568588        96.73565        0.1390005       -92.32549        0.1390005       -92.32549        0.4568589        96.73565
4.7946                 0.4569645        96.21951        0.1339191       -94.20952        0.1339192       -94.20954        0.4569647        96.21954
4.796                  0.4570329        95.69017        0.1289196       -96.13065        0.1289196       -96.13067        0.4570331        95.69017
4.7974                 0.4570562          95.148        0.1240087       -98.09263        0.1240087       -98.09264        0.4570563          95.148
4.7988                 0.4570269        94.59339         0.119193       -100.0997         0.119193       -100.0997         0.457027        94.59341
4.8002                 0.4569381        94.02692        0.1144791       -102.1566        0.1144791       -102.1567        0.4569382        94.02695
4.8016                 0.4567835        93.44909        0.1098737       -104.2688        0.1098737       -104.2688        0.4567837        93.44912
4.803                  0.4565576        92.86059        0.1053833       -106.4421        0.1053833       -106.4421        0.4565577        92.86062
4.8044                 0.4562552        92.26206        0.1010147       -108.6832        0.1010147       -108.6832        0.4562553        92.26209
4.8058                 0.4558717        91.65413        0.0967745       -110.9993       0.09677447       -110.9993        0.4558718        91.65416
4.8072                 0.4554035        91.03754       0.09266964       -113.3982       0.09266961       -113.3982        0.4554037        91.03757
4.8086                 0.4548475        90.41303       0.08870713       -115.8885       0.08870709       -115.8885        0.4548476        90.41306
4.81                   0.4542011        89.78134       0.08489428       -118.4793       0.08489425       -118.4793        0.4542012        89.78137
4.8114                 0.4534625        89.14319       0.08123871       -121.1801       0.08123868       -121.1801        0.4534626        89.14321
4.8128                 0.4526306        88.49934       0.07774838       -124.0008       0.07774833       -124.0008        0.4526307        88.49937
4.8142                 0.4517045        87.85052       0.07443166       -126.9511       0.07443164       -126.9511        0.4517047        87.85055
4.8156                 0.4506846        87.19743       0.07129744       -130.0406        0.0712974       -130.0406        0.4506848        87.19745
4.817                  0.4495713        86.54077       0.06835499        -133.278       0.06835495        -133.278        0.4495714         86.5408
4.8184                 0.4483655        85.88123       0.06561408       -136.6707       0.06561404       -136.6706        0.4483656        85.88125
4.8198                 0.4470689        85.21941       0.06308474       -140.2236       0.06308471       -140.2236         0.447069        85.21944
4.8212                 0.4456834        84.55594       0.06077722       -143.9391       0.06077718       -143.9391        0.4456835        84.55597
4.8226                 0.4442116        83.89138       0.05870161       -147.8153       0.05870157       -147.8153        0.4442117         83.8914
4.824                   0.442656        83.22624       0.05686756       -151.8457       0.05686752       -151.8456        0.4426561        83.22628
4.8254                 0.4410197        82.56101       0.05528382        -156.018       0.05528378        -156.018        0.4410198        82.56104
4.8268                 0.4393061        81.89613       0.05395771       -160.3144       0.05395768       -160.3144        0.4393062        81.89615
4.8282                 0.4375186        81.23196       0.05289458       -164.7106       0.05289455       -164.7106        0.4375187        81.23198
4.8296                 0.4356609        80.56884       0.05209727       -169.1774       0.05209724       -169.1774         0.435661        80.56886
4.831                  0.4337367        79.90704       0.05156574       -173.6811       0.05156571        -173.681        0.4337369        79.90707
4.8324                   0.43175        79.24679       0.05129677       -178.1856       0.05129675       -178.1856          0.43175        79.24681
4.8338                 0.4297043        78.58827       0.05128396        177.3454       0.05128393        177.3454        0.4297044        78.58831
4.8352                 0.4276036        77.93161       0.05151786        172.9468       0.05151783        172.9468        0.4276036        77.93166
4.8366                 0.4254514        77.27688       0.05198641        168.6498       0.05198639        168.6498        0.4254515        77.27693
4.838                  0.4232515        76.62413       0.05267546        164.4806       0.05267544        164.4806        0.4232515        76.62415
4.8394                  0.421007        75.97328        0.0535694        160.4598       0.05356938        160.4598        0.4210071        75.97333
4.8408                 0.4187213        75.32434       0.05465174        156.6019       0.05465173         156.602        0.4187213         75.3244
4.8422                 0.4163973         74.6772       0.05590577        152.9159       0.05590575        152.9159        0.4163974        74.67724
4.8436                 0.4140378         74.0317       0.05731497        149.4054       0.05731495        149.4054        0.4140378        74.03176
4.845                  0.4116452        73.38771       0.05886341          146.07        0.0588634        146.0701        0.4116452        73.38775
4.8464                 0.4092217        72.74502       0.06053603        142.9061       0.06053602        142.9062        0.4092217        72.74506
4.8478                 0.4067692        72.10343       0.06231877        139.9075       0.06231878        139.9075        0.4067692        72.10346
4.8492                 0.4042893        71.46268        0.0641987        137.0663       0.06419871        137.0663        0.4042893        71.46274
4.8506                 0.4017834        70.82258       0.06616398        134.3737       0.06616398        134.3737        0.4017834        70.82263
4.852                  0.3992525        70.18285        0.0682039        131.8203       0.06820388        131.8203        0.3992524         70.1829
4.8534                 0.3966972        69.54326       0.07030875        129.3967       0.07030875        129.3967        0.3966972        69.54331
4.8548                 0.3941183        68.90352       0.07246986        127.0934       0.07246987        127.0935        0.3941183        68.90358
4.8562                 0.3915158        68.26345       0.07467945        124.9016       0.07467944        124.9016        0.3915158        68.26349
4.8576                 0.3888898        67.62274       0.07693056        122.8128       0.07693056        122.8128        0.3888898        67.62279
4.859                  0.3862402        66.98122       0.07921699        120.8189         0.079217        120.8189        0.3862402        66.98127
4.8604                 0.3835666        66.33866       0.08153329        118.9127       0.08153329        118.9127        0.3835667        66.33872
4.8618                 0.3808686         65.6949       0.08387458        117.0873       0.08387459        117.0873        0.3808686        65.69496
4.8632                 0.3781454        65.04975        0.0862366        115.3365       0.08623661        115.3365        0.3781455        65.04979
4.8646                 0.3753965        64.40308       0.08861561        113.6546       0.08861562        113.6546        0.3753966        64.40312
4.866                  0.3726211        63.75478       0.09100835        112.0364       0.09100838        112.0364        0.3726211        63.75484
4.8674                 0.3698184        63.10475       0.09341206        110.4773       0.09341208        110.4773        0.3698184        63.10481
4.8688                 0.3669875        62.45294       0.09582432        108.9728       0.09582433        108.9728        0.3669875          62.453
4.8702                 0.3641278         61.7993       0.09824315        107.5191       0.09824316        107.5191        0.3641278        61.79936
4.8716                 0.3612384        61.14384        0.1006669        106.1125        0.1006669        106.1125        0.3612385         61.1439