! TOUCHSTONE file generated by CST MICROWAVE STUDIO
! Date and time: Sun Dec  1 17:17:04 2024
! Project name: test_tuning.cst
! Parameters = {airCoaxOuterDiameter=3; chamferAngle=45; chamferWidth=24; connectorLength=10; drillingHoleDiameter=4.1; feedLength=60; flareDiameter=130; flareLength=70; gratingDistance=0; gratingGap=1.90274; outletLength=30; polarizerLength=106; probe1Diameter=1.3; probe1Distance=14; probe1Length=12; probe2Diameter=1.3; probe2Distance=0; probe2Length=12; probeLength=12; smaInnerDiameter=1.3; smaOuterDiameter=4.1; transitionCoefficient=1.33; waveguideFeedLength=30; waveguideSide=50; waveguideThickness=3; wireCount=25; wireDiameter=1.17699}
! Header version: 2024
! Port assignment regex: !\s*Touchstone port\s*([0-9]+)\s*=\s*(CST MWS port|CST DES external port|CST DES block port)\s*(.+)\s* \(\"(.*)\"\)(\s*mode\s*([0-9]+))?.*
! Touchstone port assignment:
! Touchstone port 1 = CST MWS port 1 ("Input1")
! Touchstone port 2 = CST MWS port 2 ("Input2")
# GHz S MA R 50
4.6                    0.1926121       -162.9164        0.6871977        64.93895        0.6871979        64.93893        0.1926126       -162.9165
4.6014                 0.1991758       -163.9443        0.6881057        64.00687        0.6881057        64.00687        0.1991763       -163.9444
4.6028                  0.205758       -164.9703        0.6889449        63.07191         0.688945         63.0719        0.2057585       -164.9704
4.6042                 0.2123502       -165.9958        0.6897189        62.13389         0.689719        62.13388        0.2123507       -165.9959
4.6056                 0.2189436       -167.0219        0.6904304        61.19256        0.6904305        61.19253         0.218944       -167.0221
4.607                  0.2255286       -168.0493        0.6910815        60.24758        0.6910816        60.24755         0.225529       -168.0495
4.6084                 0.2320958       -169.0782        0.6916735        59.29859        0.6916737        59.29857        0.2320962       -169.0783
4.6098                 0.2386356       -170.1083        0.6922067        58.34521        0.6922068        58.34519        0.2386359       -170.1084
4.6112                 0.2451388       -171.1393        0.6926804        57.38702        0.6926804        57.38699        0.2451391       -171.1394
4.6126                 0.2515969       -172.1705        0.6930927        56.42359        0.6930928        56.42355        0.2515972       -172.1706
4.614                  0.2580022       -173.2011         0.693441        55.45452        0.6934411        55.45449        0.2580024       -173.2013
4.6154                 0.2643478       -174.2303        0.6937216        54.47946        0.6937216        54.47943        0.2643479       -174.2304
4.6168                 0.2706279        -175.257          0.69393        53.49808        0.6939301        53.49804         0.270628       -175.2571
4.6182                 0.2768381       -176.2803        0.6940611        52.51011        0.6940611        52.51008        0.2768382       -176.2804
4.6196                 0.2829749       -177.2993         0.694109        51.51535         0.694109        51.51532        0.2829749       -177.2994
4.621                  0.2890362       -178.3132        0.6940677        50.51368        0.6940677        50.51366        0.2890362       -178.3133
4.6224                  0.295021       -179.3213         0.693931        49.50505         0.693931        49.50502         0.295021       -179.3213
4.6238                 0.3009292         179.677        0.6936925        48.48948        0.6936925        48.48944        0.3009292        179.6769
4.6252                 0.3067618         178.682        0.6933463        47.46706        0.6933462        47.46703        0.3067618        178.6819
4.6266                 0.3125204        177.6939        0.6928864        46.43797        0.6928864        46.43793        0.3125204        177.6938
4.628                   0.318207        176.7127        0.6923077        45.40244        0.6923077         45.4024         0.318207        176.7127
4.6294                 0.3238242        175.7384        0.6916058        44.36073        0.6916057         44.3607        0.3238242        175.7384
4.6308                 0.3293744        174.7705        0.6907766        43.31318        0.6907765        43.31315        0.3293745        174.7705
4.6322                   0.33486        173.8087        0.6898171        42.26014         0.689817        42.26011          0.33486        173.8087
4.6336                 0.3402828        172.8522        0.6887251        41.20198        0.6887251        41.20194        0.3402829        172.8522
4.635                  0.3456442        171.9005        0.6874995        40.13906        0.6874993        40.13903        0.3456444        171.9005
4.6364                  0.350945        170.9527        0.6861396        39.07174        0.6861394        39.07171        0.3509453        170.9527
4.6378                 0.3561848         170.008        0.6846459        38.00038        0.6846456        38.00034        0.3561851         170.008
4.6392                 0.3613623        169.0657        0.6830192        36.92525         0.683019        36.92522        0.3613626        169.0658
4.6406                 0.3664751        168.1251        0.6812613        35.84664         0.681261        35.84661        0.3664755        168.1251
4.642                    0.37152        167.1853        0.6793742        34.76474         0.679374        34.76471        0.3715204        167.1853
4.6434                 0.3764924        166.2459        0.6773604        33.67972        0.6773601        33.67969        0.3764929        166.2459
4.6448                 0.3813871        165.3063        0.6752224        32.59164        0.6752221        32.59161        0.3813876        165.3063
4.6462                 0.3861978        164.3662        0.6729628        31.50055        0.6729624        31.50052        0.3861983        164.3662
4.6476                 0.3909177        163.4254        0.6705841        30.40639        0.6705838        30.40636        0.3909182        163.4254
4.649                  0.3955395        162.4839        0.6680884        29.30907        0.6680881        29.30905          0.39554        162.4839
4.6504                 0.4000555         161.542        0.6654774        28.20845        0.6654772        28.20842        0.4000561         161.542
4.6518                 0.4044584        160.5998        0.6627525         27.1043        0.6627522        27.10428         0.404459        160.5998
4.6532                 0.4087405        159.6579        0.6599141        25.99641        0.6599138        25.99639        0.4087412         159.658
4.6546                 0.4128952        158.7171        0.6569621         24.8845        0.6569618        24.88448        0.4128958        158.7171
4.656                   0.416916        157.7779        0.6538956        23.76828        0.6538952        23.76827        0.4169166        157.7779
4.6574                 0.4207976        156.8415        0.6507128        22.64748        0.6507124        22.64747        0.4207983        156.8414
4.6588                  0.424536        155.9087        0.6474113        21.52181         0.647411         21.5218        0.4245365        155.9086
4.6602                  0.428128        154.9806        0.6439879        20.39102        0.6439876        20.39101        0.4281285        154.9806
4.6616                  0.431572        154.0584        0.6404386        19.25489        0.6404384        19.25488        0.4315726        154.0584
4.663                   0.434868        153.1431         0.636759        18.11324        0.6367588        18.11324        0.4348686        153.1431
4.6644                 0.4380175         152.236        0.6329441        16.96597        0.6329439        16.96597         0.438018         152.236
4.6658                 0.4410235         151.338        0.6289884        15.81302        0.6289883        15.81302        0.4410239         151.338
4.6672                 0.4438904        150.4503        0.6248864        14.65442        0.6248862        14.65442        0.4438909        150.4503
4.6686                 0.4466245        149.5736        0.6206322        13.49029        0.6206321        13.49029         0.446625        149.5736
4.67                   0.4492331        148.7088        0.6162201        12.32082          0.61622        12.32082        0.4492337        148.7088
4.6714                 0.4517251        147.8566        0.6116445        11.14631        0.6116445        11.14631        0.4517256        147.8566
4.6728                 0.4541101        147.0175        0.6069003        9.967146        0.6069003        9.967143        0.4541105        147.0175
4.6742                 0.4563988        146.1917        0.6019826        8.783802        0.6019826        8.783797        0.4563993        146.1917
4.6756                 0.4586027        145.3795        0.5968872         7.59686        0.5968871        7.596853        0.4586031        145.3795
4.677                  0.4607335        144.5808        0.5916104         6.40699        0.5916103         6.40698         0.460734        144.5808
4.6784                 0.4628032        143.7955        0.5861496        5.214952        0.5861496         5.21494        0.4628038        143.7955
4.6798                  0.464824        143.0229        0.5805029        4.021597        0.5805029        4.021583        0.4648245        143.0229
4.6812                 0.4668074        142.2627        0.5746694        2.827857        0.5746693        2.827841        0.4668079        142.2627
4.6826                 0.4687648         141.514         0.568649        1.634745         0.568649        1.634726        0.4687654         141.514
4.684                  0.4707067        140.7758         0.562443       0.4433476         0.562443       0.4433268        0.4707072        140.7758
4.6854                 0.4726427        140.0472        0.5560536      -0.7451764        0.5560536      -0.7451993        0.4726432        140.0472
4.6868                 0.4745814        139.3268        0.5494841       -1.929604         0.549484       -1.929629         0.474582        139.3268
4.6882                 0.4765302        138.6136         0.542739       -3.108651        0.5427388       -3.108678        0.4765308        138.6136
4.6896                 0.4784954         137.906        0.5358236       -4.280978        0.5358235       -4.281006         0.478496         137.906
4.691                  0.4804814        137.2027        0.5287447       -5.445193        0.5287445       -5.445222         0.480482        137.2027
4.6924                 0.4824914        136.5022          0.52151       -6.599859        0.5215098       -6.599888        0.4824921        136.5022
4.6938                 0.4845274         135.803        0.5141282       -7.743496        0.5141279       -7.743524         0.484528         135.803
4.6952                 0.4865897        135.1039        0.5066089       -8.874588        0.5066087       -8.874616        0.4865904        135.1039
4.6966                 0.4886773        134.4033         0.498963       -9.991587        0.4989627       -9.991613        0.4886779        134.4033
4.698                  0.4907877        133.6999        0.4912021       -11.09294        0.4912018       -11.09296        0.4907883        133.6999
4.6994                 0.4929172        132.9925        0.4833386         -12.177        0.4833383       -12.17703        0.4929179        132.9925
4.7008                 0.4950612        132.2799        0.4753861       -13.24222        0.4753857       -13.24222        0.4950617        132.2799
4.7022                 0.4972134         131.561        0.4673584         -14.287        0.4673581         -14.287        0.4972141         131.561
4.7036                 0.4993672        130.8349        0.4592706       -15.30971        0.4592702       -15.30971        0.4993677        130.8349
4.705                  0.5015147        130.1008        0.4511379       -16.30877        0.4511376        -16.3088        0.5015152        130.1007
4.7064                 0.5036471        129.3577        0.4429765       -17.28269        0.4429762        -17.2827        0.5036477        129.3577
4.7078                 0.5057556        128.6053        0.4348029       -18.22997        0.4348025       -18.22997        0.5057561        128.6053
4.7092                 0.5078302        127.8429        0.4266337       -19.14918        0.4266334       -19.14917        0.5078307        127.8428
4.7106                 0.5098609        127.0701        0.4184861       -20.03898        0.4184858       -20.03898        0.5098614        127.0701
4.712                  0.5118372        126.2869        0.4103774       -20.89817        0.4103771       -20.89816        0.5118377        126.2868
4.7134                 0.5137484        125.4929        0.4023247       -21.72564        0.4023244       -21.72563        0.5137488        125.4928
4.7148                 0.5155838        124.6881         0.394345       -22.52048        0.3943447       -22.52046        0.5155842        124.6881
4.7162                 0.5173324        123.8727        0.3864551       -23.28192        0.3864549        -23.2819        0.5173328        123.8727
4.7176                 0.5189837        123.0469        0.3786713       -24.00943        0.3786711        -24.0094         0.518984        123.0469
4.719                  0.5205269        122.2109         0.371009       -24.70269        0.3710088       -24.70267        0.5205273        122.2109
4.7204                 0.5219521        121.3651        0.3634829       -25.36165        0.3634828       -25.36162        0.5219524        121.3651
4.7218                 0.5232491        120.5101        0.3561068        -25.9865        0.3561067       -25.98647        0.5232494        120.5101
4.7232                 0.5244087        119.6464        0.3488931       -26.57774         0.348893       -26.57771         0.524409        119.6464
4.7246                  0.525422        118.7748        0.3418527       -27.13617        0.3418526       -27.13614        0.5254222        118.7748
4.726                  0.5262809        117.8959        0.3349952       -27.66285        0.3349952       -27.66283        0.5262811        117.8959
4.7274                 0.5269781        117.0107        0.3283284       -28.15918        0.3283284       -28.15914        0.5269783        117.0107
4.7288                 0.5275071        116.1199        0.3218581       -28.62679        0.3218581       -28.62676        0.5275073        116.1199
4.7302                 0.5278624        115.2248        0.3155885        -29.0676        0.3155885       -29.06757        0.5278626        115.2248
4.7316                 0.5280396        114.3261        0.3095215       -29.48373        0.3095216       -29.48371        0.5280398        114.3261
4.733                  0.5280353        113.4251        0.3036574       -29.87751        0.3036575       -29.87748        0.5280355        113.4251
4.7344                 0.5278474        112.5228        0.2979944       -30.25138        0.2979944       -30.25136        0.5278476        112.5228
4.7358                  0.527475        111.6203        0.2925287       -30.60788        0.2925288       -30.60787        0.5274752        111.6203
4.7372                 0.5269185        110.7188         0.287255       -30.94959        0.2872551       -30.94958        0.5269187        110.7188
4.7386                 0.5261794        109.8194        0.2821664       -31.27904        0.2821665       -31.27903        0.5261795        109.8194
4.74                   0.5252607        108.9232        0.2772546       -31.59869        0.2772547       -31.59868        0.5252609        108.9232
4.7414                 0.5241665        108.0313        0.2725102       -31.91084        0.2725103       -31.91083        0.5241666        108.0314
4.7428                 0.5229022        107.1448        0.2679229       -32.21761         0.267923       -32.21761        0.5229023        107.1449
4.7442                 0.5214739        106.2647        0.2634818       -32.52088        0.2634818       -32.52088        0.5214741        106.2647
4.7456                 0.5198894        105.3917        0.2591757       -32.82228        0.2591758       -32.82228        0.5198895        105.3918
4.747                  0.5181567        104.5269        0.2549934       -33.12311        0.2549935       -33.12312        0.5181569        104.5269
4.7484                 0.5162851        103.6707        0.2509239        -33.4244         0.250924       -33.42441        0.5162853        103.6708
4.7498                 0.5142842         102.824        0.2469565       -33.72685        0.2469566       -33.72687        0.5142843         102.824
4.7512                 0.5121639        101.9872        0.2430813       -34.03089        0.2430814        -34.0309        0.5121641        101.9872
4.7526                 0.5099347        101.1606        0.2392893       -34.33661        0.2392894       -34.33663        0.5099349        101.1606
4.754                  0.5076069        100.3445        0.2355722       -34.64393        0.2355723       -34.64395        0.5076071        100.3445
4.7554                 0.5051908          99.539        0.2319232       -34.95248        0.2319232       -34.95251         0.505191        99.53903
4.7568                 0.5026962        98.74409         0.228336       -35.26177        0.2283361        -35.2618        0.5026963        98.74414
4.7582                 0.5001327        97.95974        0.2248062       -35.57114        0.2248062       -35.57117        0.5001328        97.95977
4.7596                 0.4975089        97.18563        0.2213297       -35.87986        0.2213297       -35.87989        0.4975091        97.18565
4.761                  0.4948333        96.42146        0.2179041       -36.18717        0.2179041       -36.18721        0.4948335        96.42149
4.7624                 0.4921128        95.66678        0.2145277       -36.49233        0.2145276       -36.49237         0.492113        95.66681
4.7638                 0.4893537        94.92111        0.2111994       -36.79464        0.2111994       -36.79468        0.4893539        94.92119
4.7652                 0.4865614          94.184        0.2079192       -37.09351        0.2079192       -37.09355        0.4865616        94.18402
4.7666                   0.48374        93.45478        0.2046873       -37.38847        0.2046872       -37.38851        0.4837402         93.4548
4.768                  0.4808929        92.73289        0.2015044       -37.67921        0.2015043       -37.67926        0.4808931        92.73291
4.7694                 0.4780224        92.01773        0.1983713       -37.96562        0.1983712       -37.96565        0.4780226        92.01778
4.7708                 0.4751298        91.30882        0.1952888       -38.24772        0.1952887       -38.24775          0.47513        91.30888
4.7722                  0.472216        90.60561        0.1922576       -38.52578        0.1922575       -38.52581        0.4722161        90.60566
4.7736                 0.4692807        89.90765        0.1892783       -38.80021        0.1892781       -38.80023        0.4692809        89.90768
4.775                  0.4663237        89.21455        0.1863507       -39.07159        0.1863505       -39.07161        0.4663238         89.2146
4.7764                 0.4633439          88.526        0.1834746       -39.34062        0.1834744       -39.34064         0.463344        88.52603
4.7778                 0.4603403        87.84177        0.1806489       -39.60814        0.1806487       -39.60814        0.4603404        87.84179
4.7792                 0.4573117        87.16169        0.1778722         -39.875        0.1778721         -39.875        0.4573118        87.16175
4.7806                  0.454257        86.48575        0.1751425       -40.14213        0.1751423       -40.14212        0.4542571        86.48578
4.782                  0.4511756         85.8139        0.1724573       -40.41039        0.1724571       -40.41037        0.4511757        85.81399
4.7834                 0.4480668        85.14631        0.1698135        -40.6806        0.1698133       -40.68057        0.4480669        85.14633
4.7848                 0.4449305        84.48303        0.1672079        -40.9535        0.1672077       -40.95347        0.4449306        84.48306
4.7862                 0.4417673        83.82426         0.164637       -41.22967        0.1646368       -41.22962        0.4417674        83.82429
4.7876                 0.4385781        83.17022        0.1620969       -41.50954        0.1620968       -41.50949        0.4385783        83.17028
4.789                  0.4353646        82.52115         0.159584       -41.79335        0.1595839       -41.79329        0.4353647         82.5212
4.7904                 0.4321287         81.8772        0.1570948       -42.08114        0.1570947       -42.08109        0.4321289        81.87726
4.7918                 0.4288732        81.23865        0.1546256        -42.3728        0.1546256       -42.37273        0.4288733        81.23867
4.7932                  0.425601        80.60553        0.1521736       -42.66798        0.1521736        -42.6679        0.4256012        80.60556
4.7946                 0.4223157        79.97798        0.1497359       -42.96616        0.1497359       -42.96609        0.4223158        79.97803
4.796                  0.4190208        79.35603        0.1473103       -43.26669        0.1473104       -43.26661         0.419021        79.35608
4.7974                 0.4157201        78.73961        0.1448952       -43.56877        0.1448952        -43.5687        0.4157203        78.73965
4.7988                 0.4124174        78.12857        0.1424893       -43.87153        0.1424893       -43.87146        0.4124176        78.12863
4.8002                 0.4091165        77.52267        0.1400919       -44.17405         0.140092       -44.17398        0.4091166        77.52272
4.8016                 0.4058205        76.92158        0.1377029       -44.47537         0.137703       -44.47531        0.4058207        76.92164
4.803                  0.4025325        76.32492        0.1353225       -44.77461        0.1353226       -44.77455        0.4025327        76.32497
4.8044                 0.3992551        75.73215        0.1329515        -45.0709        0.1329517       -45.07086        0.3992552         75.7322
4.8058                   0.39599        75.14278        0.1305909       -45.36353         0.130591        -45.3635        0.3959902        75.14282
4.8072                 0.3927387        74.55613        0.1282417        -45.6519        0.1282418       -45.65188        0.3927389        74.55618
4.8086                 0.3895017        73.97161        0.1259053       -45.93558        0.1259054       -45.93557        0.3895019        73.97166
4.81                   0.3862789        73.38855         0.123583       -46.21434        0.1235831       -46.21434        0.3862791        73.38859
4.8114                 0.3830696        72.80627        0.1212759        -46.4881        0.1212761        -46.4881        0.3830697        72.80631
4.8128                 0.3798724        72.22415        0.1189851       -46.75703        0.1189853       -46.75704        0.3798725        72.22418
4.8142                 0.3766852        71.64158        0.1167113       -47.02143        0.1167114       -47.02144        0.3766853        71.64162
4.8156                 0.3735056        71.05799        0.1144548       -47.28178        0.1144549        -47.2818        0.3735057        71.05805
4.817                  0.3703308        70.47295        0.1122155       -47.53871        0.1122156       -47.53873        0.3703309        70.47298
4.8184                 0.3671577        69.88602         0.109993       -47.79291        0.1099931       -47.79294        0.3671578        69.88606
4.8198                 0.3639831         69.2969        0.1077863       -48.04515        0.1077864       -48.04519        0.3639831        69.29694
4.8212                 0.3608037        68.70537        0.1055941       -48.29618        0.1055942       -48.29621        0.3608037        68.70541
4.8226                 0.3576164        68.11132        0.1034146        -48.5467        0.1034147       -48.54673        0.3576164        68.11134
4.824                  0.3544184        67.51468        0.1012458        -48.7973        0.1012458       -48.79733        0.3544183        67.51471
4.8254                 0.3512071         66.9155       0.09908514       -49.04842        0.0990852       -49.04846         0.351207        66.91554
4.8268                 0.3479805        66.31391       0.09693021       -49.30029       0.09693025       -49.30033        0.3479803        66.31394
4.8282                 0.3447369        65.71004       0.09477826       -49.55288       0.09477831       -49.55292        0.3447368        65.71009
4.8296                 0.3414754        65.10411       0.09262663       -49.80588       0.09262668       -49.80591        0.3414752        65.10417
4.831                  0.3381953        64.49633        0.0904727       -50.05866       0.09047276       -50.05869        0.3381951        64.49638
4.8324                 0.3348968        63.88693       0.08831405       -50.31023        0.0883141       -50.31027        0.3348966        63.88698
4.8338                 0.3315805        63.27607       0.08614848       -50.55929       0.08614853       -50.55932        0.3315802        63.27613
4.8352                 0.3282472        62.66393       0.08397413       -50.80413       0.08397418       -50.80418         0.328247        62.66399
4.8366                 0.3248985        62.05056       0.08178949       -51.04275       0.08178956       -51.04278        0.3248983        62.05064
4.838                  0.3215361        61.43601       0.07959349       -51.27273       0.07959355       -51.27278        0.3215358        61.43609
4.8394                 0.3181617        60.82016       0.07738542       -51.49136       0.07738549       -51.49141        0.3181614        60.82025
4.8408                 0.3147773        60.20285       0.07516506       -51.69558       0.07516513       -51.69563        0.3147771        60.20294
4.8422                 0.3113847        59.58375       0.07293255         -51.882       0.07293263       -51.88206        0.3113845        59.58384
4.8436                 0.3079856        58.96248       0.07068848       -52.04692       0.07068854       -52.04699        0.3079854        58.96257
4.845                  0.3045814         58.3385       0.06843367       -52.18633       0.06843372       -52.18641        0.3045811        58.33859
4.8464                 0.3011729        57.71117       0.06616928       -52.29587       0.06616934       -52.29595        0.3011727        57.71127
4.8478                 0.2977606        57.07978       0.06389672       -52.37078       0.06389679       -52.37088        0.2977604        57.07988
4.8492                 0.2943444        56.44353       0.06161754       -52.40592       0.06161758       -52.40602        0.2943442        56.44364
4.8506                 0.2909236        55.80155       0.05933335       -52.39558        0.0593334       -52.39569        0.2909234        55.80165
4.852                  0.2874969        55.15293       0.05704589       -52.33345       0.05704592       -52.33357        0.2874967        55.15303
4.8534                 0.2840622        54.49673       0.05475686       -52.21238       0.05475687       -52.21252         0.284062        54.49684
4.8548                  0.280617        53.83201       0.05246798       -52.02419       0.05246798       -52.02434        0.2806168        53.83212
4.8562                 0.2771582        53.15787       0.05018095       -51.75937       0.05018093       -51.75953         0.277158        53.15797
4.8576                 0.2736823        52.47343       0.04789751       -51.40666       0.04789749       -51.40682        0.2736821        52.47352
4.859                  0.2701851        51.77787       0.04561953       -50.95257       0.04561949       -50.95273         0.270185        51.77797
4.8604                 0.2666627        51.07046       0.04334905       -50.38071       0.04334901       -50.38087        0.2666625        51.07055
4.8618                 0.2631105        50.35055       0.04108856       -49.67095        0.0410885       -49.67111        0.2631103        50.35065
4.8632                  0.259524        49.61757       0.03884116       -48.79837        0.0388411       -48.79852        0.2595238        49.61767
4.8646                 0.2558989        48.87107       0.03661095       -47.73185       0.03661088         -47.732        0.2558987        48.87117
4.866                   0.252231        48.11068       0.03440347       -46.43243       0.03440338       -46.43258        0.2522308        48.11078
4.8674                 0.2485163         47.3361        0.0322263       -44.85112       0.03222621       -44.85126        0.2485161         47.3362
4.8688                 0.2447512        46.54715       0.03008992       -42.92648       0.03008982       -42.92661         0.244751        46.54725
4.8702                 0.2409326        45.74366       0.02800878        -40.5819       0.02800869         -40.582        0.2409323        45.74376
4.8716                 0.2370576        44.92551       0.02600277        -37.7233       0.02600268       -37.72339        0.2370573        44.92563