! TOUCHSTONE file generated by CST MICROWAVE STUDIO
! Date and time: Sun Dec  1 17:17:06 2024
! Project name: test_tuning.cst
! Parameters = {airCoaxOuterDiameter=3; chamferAngle=45; chamferWidth=24; connectorLength=10; drillingHoleDiameter=4.1; feedLength=60; flareDiameter=130; flareLength=70; gratingDistance=0; gratingGap=1.90274; outletLength=30; polarizerLength=118; probe1Diameter=1.3; probe1Distance=14; probe1Length=12; probe2Diameter=1.3; probe2Distance=0; probe2Length=12; probeLength=12; smaInnerDiameter=1.3; smaOuterDiameter=4.1; transitionCoefficient=1.33; waveguideFeedLength=30; waveguideSide=50; waveguideThickness=3; wireCount=25; wireDiameter=1.17699}
! Header version: 2024
! Port assignment regex: !\s*Touchstone port\s*([0-9]+)\s*=\s*(CST MWS port|CST DES external port|CST DES block port)\s*(.+)\s* \(\"(.*)\"\)(\s*mode\s*([0-9]+))?.*
! Touchstone port assignment:
! Touchstone port 1 = CST MWS port 1 ("Input1")
! Touchstone port 2 = CST MWS port 2 ("Input2")
# GHz S MA R 50
4.6                    0.2017052       -150.4738        0.6348766        60.20002        0.6348761        60.20006        0.2017057       -150.4739
4.6014                 0.2077454       -151.7184        0.6354238        59.31666        0.6354234         59.3167        0.2077459       -151.7184
4.6028                  0.213798       -152.9365         0.635909        58.42896        0.6359084        58.42901        0.2137986       -152.9365
4.6042                 0.2198623       -154.1298        0.6363343         57.5369        0.6363339        57.53694        0.2198629       -154.1299
4.6056                 0.2259378       -155.3001        0.6367024        56.64039         0.636702        56.64045        0.2259385       -155.3001
4.607                  0.2320248       -156.4488        0.6370154        55.73932        0.6370152        55.73937        0.2320255       -156.4489
4.6084                 0.2381235       -157.5777        0.6372755        54.83344        0.6372752        54.83348        0.2381242       -157.5778
4.6098                 0.2442345       -158.6884        0.6374843        53.92248         0.637484        53.92253        0.2442353       -158.6885
4.6112                 0.2503586       -159.7824         0.637643        53.00609        0.6376428        53.00614        0.2503594       -159.7825
4.6126                 0.2564961       -160.8614         0.637752        52.08389        0.6377517        52.08394         0.256497       -160.8615
4.614                  0.2626476       -161.9268        0.6378111        51.15542        0.6378109        51.15547        0.2626485       -161.9269
4.6154                 0.2688129       -162.9803        0.6378193        50.22023        0.6378192        50.22028        0.2688138       -162.9804
4.6168                 0.2749917       -164.0233        0.6377748        49.27781        0.6377746        49.27786        0.2749926       -164.0234
4.6182                 0.2811831       -165.0574        0.6376746        48.32767        0.6376745        48.32771        0.2811839       -165.0575
4.6196                 0.2873855       -166.0837        0.6375151        47.36929        0.6375151        47.36933        0.2873863       -166.0838
4.621                  0.2935968       -167.1038        0.6372917        46.40219        0.6372916        46.40224        0.2935975       -167.1039
4.6224                 0.2998141       -168.1186        0.6369986        45.42594        0.6369986        45.42597        0.2998149       -168.1187
4.6238                 0.3060342       -169.1293        0.6366295        44.44007        0.6366296        44.44011         0.306035       -169.1294
4.6252                 0.3122529       -170.1368        0.6361774        43.44424        0.6361774        43.44428        0.3122537       -170.1369
4.6266                 0.3184658       -171.1418         0.635634        42.43813        0.6356341        42.43816        0.3184665       -171.1419
4.628                  0.3246677        -172.145         0.634991        41.42148        0.6349912        41.42151        0.3246683       -172.1451
4.6294                 0.3308532       -173.1469        0.6342395        40.39413        0.6342397        40.39416        0.3308538        -173.147
4.6308                 0.3370165       -174.1478        0.6333699          39.356          0.63337        39.35602        0.3370172       -174.1479
4.6322                 0.3431521       -175.1478        0.6323726        38.30706        0.6323727        38.30709        0.3431527       -175.1479
4.6336                  0.349254       -176.1471        0.6312378        37.24742        0.6312379        37.24744        0.3492546       -176.1472
4.635                  0.3553167       -177.1456        0.6299558        36.17725        0.6299559        36.17727        0.3553173       -177.1457
4.6364                 0.3613348       -178.1431         0.628517        35.09681        0.6285171        35.09683        0.3613354       -178.1432
4.6378                 0.3673035       -179.1394        0.6269121        34.00647        0.6269122        34.00649         0.367304       -179.1395
4.6392                 0.3732184        179.8659        0.6251322        32.90668        0.6251324         32.9067        0.3732189        179.8658
4.6406                 0.3790759        178.8732        0.6231689        31.79799        0.6231691        31.79801        0.3790764        178.8731
4.642                   0.384873        177.8827        0.6210146        30.68102        0.6210148        30.68103        0.3848735        177.8827
4.6434                 0.3906077        176.8951        0.6186624        29.55646        0.6186625        29.55648        0.3906082         176.895
4.6448                 0.3962788        175.9105         0.616106        28.42512        0.6161062        28.42513        0.3962793        175.9105
4.6462                  0.401886        174.9295        0.6133405        27.28784        0.6133406        27.28785        0.4018865        174.9294
4.6476                 0.4074297        173.9522        0.6103617        26.14554        0.6103618        26.14555        0.4074303        173.9521
4.649                  0.4129114        172.9789        0.6071664         24.9992        0.6071666        24.99921        0.4129119        172.9788
4.6504                  0.418333        172.0097        0.6037528        23.84986        0.6037529        23.84986        0.4183335        172.0096
4.6518                 0.4236972        171.0446        0.6001201        22.69859        0.6001202         22.6986        0.4236977        171.0445
4.6532                 0.4290073        170.0836        0.5962686        21.54651        0.5962686        21.54652        0.4290079        170.0835
4.6546                 0.4342669        169.1263        0.5921999        20.39479           0.5922         20.3948        0.4342674        169.1263
4.656                  0.4394795        168.1725        0.5879167        19.24461        0.5879169        19.24461          0.43948        168.1725
4.6574                 0.4446489        167.2217        0.5834233        18.09717        0.5834233        18.09717        0.4446495        167.2217
4.6588                 0.4497786        166.2734        0.5787243        16.95369        0.5787243        16.95369        0.4497792        166.2733
4.6602                 0.4548717        165.3267        0.5738263         15.8154        0.5738263         15.8154        0.4548723        165.3267
4.6616                 0.4599306         164.381        0.5687363        14.68352        0.5687363        14.68353        0.4599311        164.3809
4.663                  0.4649567        163.4353         0.563463        13.55929         0.563463        13.55929        0.4649573        163.4353
4.6644                  0.469951        162.4887        0.5580155         12.4439        0.5580155         12.4439        0.4699516        162.4887
4.6658                 0.4749128        161.5403         0.552404        11.33855        0.5524041        11.33855        0.4749134        161.5403
4.6672                 0.4798404        160.5891        0.5466398         10.2444        0.5466398         10.2444         0.479841        160.5891
4.6686                 0.4847306        159.6341        0.5407344        9.162576        0.5407344        9.162576        0.4847312         159.634
4.67                    0.489579        158.6742        0.5347006        8.094162        0.5347006        8.094162        0.4895797        158.6742
4.6714                 0.4943797        157.7087        0.5285512        7.040195        0.5285512        7.040195        0.4943803        157.7087
4.6728                 0.4991251        156.7368        0.5222999        6.001654        0.5222999        6.001654        0.4991257        156.7367
4.6742                 0.5038065        155.7576        0.5159606        4.979453        0.5159606        4.979453        0.5038071        155.7576
4.6756                 0.5084139        154.7706        0.5095476        3.974435        0.5095476        3.974435        0.5084145        154.7706
4.677                  0.5129359        153.7754        0.5030752        2.987364        0.5030752        2.987364        0.5129365        153.7754
4.6784                 0.5173605        152.7717        0.4965579        2.018914        0.4965579        2.018916        0.5173611        152.7716
4.6798                 0.5216746        151.7592        0.4900103        1.069669        0.4900103        1.069671        0.5216751        151.7592
4.6812                 0.5258645         150.738        0.4834464        0.140107        0.4834464       0.1401091        0.5258651         150.738
4.6826                 0.5299162        149.7083        0.4768805      -0.7694008        0.4768805       -0.769398        0.5299168        149.7083
4.684                  0.5338156        148.6704        0.4703262       -1.658598        0.4703262       -1.658595        0.5338162        148.6704
4.6854                 0.5375486        147.6249        0.4637968        -2.52735        0.4637968       -2.527346        0.5375492        147.6249
4.6868                 0.5411017        146.5724        0.4573051       -3.375646        0.4573051       -3.375642        0.5411022        146.5724
4.6882                 0.5444619        145.5137        0.4508631       -4.203608        0.4508632       -4.203603        0.5444623        145.5137
4.6896                 0.5476166        144.4498        0.4444823       -5.011486        0.4444823       -5.011482        0.5476172        144.4498
4.691                  0.5505552        143.3818         0.438173        -5.79967         0.438173       -5.799665        0.5505557        143.3818
4.6924                 0.5532676        142.3109        0.4319449        -6.56868        0.4319449       -6.568675        0.5532681        142.3108
4.6938                 0.5557457        141.2383        0.4258067       -7.319169        0.4258067       -7.319164        0.5557462        141.2382
4.6952                 0.5579825        140.1654        0.4197659       -8.051919        0.4197659       -8.051915        0.5579831        140.1654
4.6966                 0.5599733        139.0936        0.4138291       -8.767836        0.4138291       -8.767832        0.5599738        139.0936
4.698                  0.5617149        138.0244        0.4080016       -9.467937        0.4080017       -9.467937        0.5617154        138.0244
4.6994                 0.5632062        136.9592        0.4022877       -10.15334        0.4022877       -10.15334        0.5632068        136.9592
4.7008                  0.564448        135.8995        0.3966902       -10.82527        0.3966902       -10.82527        0.5644485        135.8995
4.7022                  0.565443        134.8467         0.391211       -11.48503        0.3912111       -11.48503        0.5654435        134.8467
4.7036                 0.5661958        133.8021        0.3858508       -12.13394        0.3858508       -12.13395        0.5661963        133.8021
4.705                  0.5667128        132.7671        0.3806088       -12.77345        0.3806089       -12.77348        0.5667135        132.7671
4.7064                 0.5670025        131.7429        0.3754836       -13.40496        0.3754837       -13.40496         0.567003        131.7428
4.7078                 0.5670743        130.7306        0.3704723       -14.02982        0.3704723       -14.02982        0.5670749        130.7306
4.7092                 0.5669394        129.7312        0.3655711        -14.6495        0.3655712       -14.64955          0.56694        129.7312
4.7106                 0.5666102        128.7456        0.3607755       -15.26538        0.3607756       -15.26539        0.5666108        128.7456
4.712                     0.5661        127.7746          0.35608       -15.87871        0.3560801       -15.87873        0.5661006        127.7745
4.7134                 0.5654229        126.8186        0.3514785       -16.49073        0.3514785       -16.49075        0.5654234        126.8186
4.7148                 0.5645932        125.8781        0.3469643       -17.10255        0.3469643       -17.10257        0.5645937        125.8781
4.7162                 0.5636258        124.9534        0.3425302       -17.71516        0.3425302       -17.71518        0.5636264        124.9534
4.7176                 0.5625354        124.0445        0.3381688       -18.32944        0.3381688       -18.32946        0.5625359        124.0445
4.719                  0.5613363        123.1514        0.3338725        -18.9461        0.3338725       -18.94612        0.5613368        123.1514
4.7204                 0.5600423        122.2739        0.3296337       -19.56571        0.3296336       -19.56574        0.5600428        122.2739
4.7218                 0.5586667        121.4115        0.3254447       -20.18868        0.3254447        -20.1887        0.5586671        121.4114
4.7232                 0.5572214        120.5637        0.3212985       -20.81525        0.3212984       -20.81527        0.5572217        120.5637
4.7246                 0.5557173          119.73        0.3171879        -21.4455        0.3171879       -21.44552        0.5557177          119.73
4.726                  0.5541644        118.9096        0.3131068       -22.07936        0.3131067       -22.07938        0.5541648        118.9096
4.7274                 0.5525708        118.1017        0.3090491        -22.7166         0.309049       -22.71661        0.5525712        118.1017
4.7288                 0.5509434        117.3054        0.3050096       -23.35684        0.3050095       -23.35685        0.5509439        117.3054
4.7302                 0.5492877          116.52         0.300984       -23.99958        0.3009839       -23.99959        0.5492881          116.52
4.7316                 0.5476076        115.7445        0.2969686        -24.6442        0.2969685       -24.64421         0.547608        115.7445
4.733                  0.5459058         114.978        0.2929605       -25.28999        0.2929603          -25.29        0.5459061         114.978
4.7344                 0.5441836        114.2197        0.2889576       -25.93614        0.2889575       -25.93615        0.5441839        114.2197
4.7358                 0.5424412        113.4689         0.284959        -26.5818        0.2849589        -26.5818        0.5424413        113.4689
4.7372                 0.5406776        112.7248        0.2809642       -27.22608        0.2809641       -27.22607        0.5406778        112.7248
4.7386                 0.5388915        111.9868        0.2769739       -27.86804        0.2769738       -27.86804        0.5388918        111.9868
4.74                   0.5370808        111.2545        0.2729891        -28.5068         0.272989        -28.5068        0.5370811        111.2545
4.7414                 0.5352427        110.5274         0.269012       -29.14149        0.2690119       -29.14147        0.5352429        110.5274
4.7428                 0.5333744        109.8053        0.2650449       -29.77127        0.2650448       -29.77126        0.5333746        109.8053
4.7442                 0.5314733         109.088        0.2610909       -30.39541        0.2610909        -30.3954        0.5314735         109.088
4.7456                 0.5295369        108.3753        0.2571536       -31.01326        0.2571536       -31.01325        0.5295371        108.3753
4.747                   0.527563        107.6674        0.2532366        -31.6243        0.2532366       -31.62429        0.5275632        107.6674
4.7484                   0.52555        106.9643        0.2493439       -32.22813        0.2493439       -32.22812        0.5255502        106.9643
4.7498                 0.5234969        106.2662        0.2454795        -32.8245        0.2454796       -32.82449        0.5234971        106.2662
4.7512                 0.5214035        105.5733        0.2416474       -33.41334        0.2416474       -33.41333        0.5214038        105.5733
4.7526                 0.5192706        104.8859        0.2378512       -33.99473        0.2378513       -33.99472        0.5192707        104.8859
4.754                  0.5170994        104.2042        0.2340945       -34.56891        0.2340945       -34.56891        0.5170996        104.2043
4.7554                 0.5148922        103.5286        0.2303803       -35.13633        0.2303804       -35.13632        0.5148925        103.5286
4.7568                 0.5126522        102.8592        0.2267112       -35.69756        0.2267113       -35.69756        0.5126526        102.8593
4.7582                 0.5103832        102.1964        0.2230892       -36.25333        0.2230893       -36.25335        0.5103836        102.1964
4.7596                 0.5080896        101.5401        0.2195156       -36.80454        0.2195157       -36.80456        0.5080899        101.5401
4.761                  0.5057761        100.8905        0.2159912       -37.35218        0.2159913        -37.3522        0.5057764        100.8906
4.7624                 0.5034479        100.2476        0.2125159       -37.89733        0.2125159       -37.89736        0.5034483        100.2476
4.7638                 0.5011106        99.61131        0.2090889       -38.44113        0.2090889       -38.44117        0.5011109        99.61131
4.7652                 0.4987692         98.9813        0.2057088       -38.98477        0.2057089       -38.98481        0.4987696        98.98133
4.7666                 0.4964292        98.35733        0.2023736       -39.52944        0.2023736       -39.52948        0.4964295        98.35736
4.768                  0.4940952        97.73899        0.1990806       -40.07626        0.1990806       -40.07631        0.4940955        97.73899
4.7694                 0.4917715        97.12567        0.1958264       -40.62635        0.1958265       -40.62638        0.4917719        97.12572
4.7708                 0.4894619        96.51689        0.1926076       -41.18065        0.1926076        -41.1807        0.4894622        96.51688
4.7722                 0.4871691        95.91181        0.1894202       -41.74007        0.1894202       -41.74011        0.4871694        95.91186
4.7736                  0.484895         95.3098        0.1862599       -42.30528        0.1862598       -42.30532        0.4848953         95.3098
4.775                  0.4826407        94.71002        0.1831225       -42.87682        0.1831224       -42.87687         0.482641        94.71005
4.7764                 0.4804062        94.11168        0.1800037       -43.45505        0.1800036        -43.4551        0.4804065        94.11171
4.7778                 0.4781905        93.51396        0.1768994        -44.0401        0.1768993       -44.04014        0.4781907        93.51396
4.7792                 0.4759915        92.91604        0.1738058       -44.63193        0.1738056       -44.63197        0.4759917        92.91603
4.7806                 0.4738064        92.31716        0.1707193       -45.23026        0.1707192       -45.23029        0.4738066        92.31716
4.782                  0.4716315        91.71664         0.167637       -45.83464        0.1676368       -45.83466        0.4716318        91.71664
4.7834                 0.4694625        91.11388        0.1645562       -46.44441         0.164556       -46.44443        0.4694627        91.11388
4.7848                 0.4672942        90.50831        0.1614751       -47.05877        0.1614749       -47.05879        0.4672944        90.50831
4.7862                 0.4651214         89.8995        0.1583924       -47.67677        0.1583922       -47.67678        0.4651216        89.89953
4.7876                 0.4629385        89.28717        0.1553074       -48.29734        0.1553072       -48.29735        0.4629386        89.28722
4.789                  0.4607399        88.67115        0.1522202       -48.91932          0.15222       -48.91932          0.46074        88.67117
4.7904                 0.4585201        88.05131        0.1491314       -49.54152        0.1491312       -49.54151        0.4585202        88.05134
4.7918                 0.4562738        87.42771        0.1460424       -50.16274        0.1460422       -50.16273        0.4562739        87.42771
4.7932                 0.4539965        86.80047         0.142955        -50.7818        0.1429548       -50.78178        0.4539965        86.80047
4.7946                 0.4516838        86.16989        0.1398716       -51.39761        0.1398714       -51.39759        0.4516839        86.16989
4.796                  0.4493326        85.53619        0.1367949       -52.00921        0.1367947       -52.00918        0.4493326        85.53622
4.7974                   0.44694        84.89981         0.133728       -52.61579        0.1337279       -52.61575        0.4469401        84.89984
4.7988                 0.4445045        84.26121        0.1306742       -53.21674        0.1306741       -53.21669        0.4445045        84.26123
4.8002                 0.4420253        83.62079        0.1276369       -53.81171        0.1276368       -53.81167        0.4420253        83.62081
4.8016                 0.4395023        82.97903        0.1246193       -54.40067        0.1246193       -54.40061        0.4395024        82.97905
4.803                  0.4369368        82.33632        0.1216247       -54.98381        0.1216247       -54.98376        0.4369368        82.33638
4.8044                 0.4343304        81.69314        0.1186559       -55.56175        0.1186559       -55.56169        0.4343305        81.69317
4.8058                 0.4316858        81.04975        0.1157154        -56.1354        0.1157154       -56.13535        0.4316858        81.04979
4.8072                  0.429006        80.40642        0.1128052       -56.70605        0.1128052       -56.70601         0.429006        80.40646
4.8086                 0.4262947        79.76331        0.1099266       -57.27537        0.1099266       -57.27532        0.4262947        79.76335
4.81                   0.4235558        79.12043        0.1070804       -57.84531        0.1070804       -57.84528        0.4235558        79.12048
4.8114                 0.4207933         78.4777        0.1042665       -58.41818        0.1042665       -58.41816        0.4207934        78.47776
4.8128                 0.4180113        77.83493        0.1014843       -58.99657        0.1014844       -58.99654        0.4180114        77.83498
4.8142                 0.4152136        77.19175        0.0987323       -59.58325       0.09873234       -59.58323        0.4152136        77.19181
4.8156                 0.4124035        76.54765       0.09600826       -60.18123       0.09600829       -60.18122        0.4124035        76.54771
4.817                  0.4095839        75.90206       0.09330934       -60.79361       0.09330937       -60.79361         0.409584        75.90212
4.8184                 0.4067569        75.25426       0.09063207       -61.42358        0.0906321       -61.42358         0.406757        75.25432
4.8198                 0.4039238         74.6034       0.08797249       -62.07429        0.0879725       -62.07432        0.4039239        74.60347
4.8212                  0.401085         73.9486        0.0853262       -62.74888       0.08532622        -62.7489         0.401085        73.94866
4.8226                 0.3982397        73.28888       0.08268859       -63.45033       0.08268859       -63.45034        0.3982398        73.28893
4.824                  0.3953863        72.62326       0.08005487        -64.1815       0.08005486       -64.18151        0.3953863        72.62331
4.8254                 0.3925221        71.95073       0.07742025       -64.94505       0.07742024       -64.94506        0.3925221        71.95079
4.8268                 0.3896432         71.2703       0.07478011       -65.74345       0.07478008       -65.74347        0.3896433        71.27035
4.8282                 0.3867452        70.58101       0.07213007       -66.57894       0.07213002       -66.57897        0.3867453        70.58105
4.8296                 0.3838225        69.88197       0.06946615       -67.45363       0.06946609       -67.45367        0.3838225        69.88203
4.831                  0.3808688        69.17241       0.06678488       -68.36944       0.06678482       -68.36946        0.3808688        69.17246
4.8324                 0.3778774        68.45159        0.0640834       -69.32823       0.06408334       -69.32823        0.3778774        68.45165
4.8338                 0.3748411          67.719       0.06135955       -70.33184       0.06135947       -70.33184        0.3748411        67.71905
4.8352                 0.3717526        66.97416       0.05861184       -71.38229       0.05861175       -71.38229        0.3717526        66.97421
4.8366                 0.3686044        66.21678       0.05583962       -72.48191       0.05583953       -72.48188        0.3686044        66.21682
4.838                  0.3653893        65.44669         0.053043       -73.63348       0.05304291       -73.63346        0.3653893        65.44675
4.8394                 0.3621004         64.6639       0.05022288        -74.8407       0.05022278       -74.84066        0.3621004        64.66395
4.8408                 0.3587311         63.8685       0.04738094       -76.10842       0.04738084       -76.10835        0.3587311        63.86855
4.8422                 0.3552758        63.06072       0.04451957       -77.44318       0.04451948       -77.44311        0.3552756        63.06077
4.8436                 0.3517292        62.24089       0.04164189       -78.85406        0.0416418       -78.85397        0.3517291        62.24093
4.845                  0.3480872        61.40941       0.03875165       -80.35356       0.03875157       -80.35342        0.3480871        61.40946
4.8464                 0.3443465        60.56675       0.03585324       -81.95913       0.03585317       -81.95897        0.3443464         60.5668
4.8478                 0.3405047        59.71341       0.03295166       -83.69535       0.03295159       -83.69518        0.3405046        59.71347
4.8492                 0.3365604        58.84987       0.03005258       -85.59737       0.03005253       -85.59716        0.3365603        58.84993
4.8506                  0.332513        57.97663       0.02716252       -87.71621       0.02716248       -87.71597        0.3325128        57.97669
4.852                  0.3283627        57.09406       0.02428923        -90.1276        0.0242892       -90.12732        0.3283625        57.09412
4.8534                 0.3241106         56.2025       0.02144242       -92.94732        0.0214424       -92.94701        0.3241104        56.20257
4.8548                 0.3197581        55.30214       0.01863535       -96.35861       0.01863534       -96.35823        0.3197579        55.30221
4.8562                 0.3153073        54.39304       0.01588801       -100.6639         0.015888       -100.6635         0.315307         54.3931
4.8576                 0.3107602        53.47507       0.01323406       -106.3871       0.01323405       -106.3866        0.3107599        53.47514
4.859                  0.3061191        52.54791       0.01073665       -114.4739       0.01073664       -114.4732        0.3061188        52.54799
4.8604                  0.301386        51.61106      0.008525367        -126.629      0.008525356       -126.6282        0.3013857        51.61112
4.8618                 0.2965625        50.66372       0.00687128       -145.3554      0.006871246       -145.3544        0.2965622        50.66381
4.8632                 0.2916497        49.70495      0.006226053       -171.0876      0.006225988       -171.0867        0.2916494        49.70504
4.8646                 0.2866477        48.73352      0.006876192        163.2187      0.006876101        163.2193        0.2866474        48.73361
4.866                   0.281556        47.74796      0.008532853        144.5699      0.008532753        144.5703        0.2815557        47.74806
4.8674                 0.2763725        46.74663         0.010747        132.4995       0.01074689        132.4997        0.2763722        46.74673
4.8688                 0.2710942        45.72766       0.01325252        124.5018       0.01325242         124.502        0.2710939        45.72776
4.8702                 0.2657166        44.68898       0.01592578        118.8723       0.01592569        118.8724        0.2657163        44.68908
4.8716                 0.2602339        43.62839       0.01871051        114.6618       0.01871042         114.662        0.2602336         43.6285