! TOUCHSTONE file generated by CST MICROWAVE STUDIO
! Date and time: Sun Dec  1 17:17:02 2024
! Project name: test_tuning.cst
! Parameters = {airCoaxOuterDiameter=3; chamferAngle=45; chamferWidth=24; connectorLength=10; drillingHoleDiameter=4.1; feedLength=60; flareDiameter=130; flareLength=70; gratingDistance=0; gratingGap=1.90274; outletLength=30; polarizerLength=98; probe1Diameter=1.3; probe1Distance=14; probe1Length=12; probe2Diameter=1.3; probe2Distance=0; probe2Length=12; probeLength=12; smaInnerDiameter=1.3; smaOuterDiameter=4.1; transitionCoefficient=1.33; waveguideFeedLength=30; waveguideSide=50; waveguideThickness=3; wireCount=25; wireDiameter=1.17699}
! Header version: 2024
! Port assignment regex: !\s*Touchstone port\s*([0-9]+)\s*=\s*(CST MWS port|CST DES external port|CST DES block port)\s*(.+)\s* \(\"(.*)\"\)(\s*mode\s*([0-9]+))?.*
! Touchstone port assignment:
! Touchstone port 1 = CST MWS port 1 ("Input1")
! Touchstone port 2 = CST MWS port 2 ("Input2")
# GHz S MA R 50
4.6                    0.2212704       -164.9388        0.6668954        68.97953        0.6668953        68.97952          0.22127       -164.9389
4.6014                  0.228198       -165.9249        0.6683109        68.02199        0.6683107        68.02199        0.2281977        -165.925
4.6028                 0.2351209       -166.9074        0.6696244        67.05967        0.6696243        67.05967        0.2351206       -166.9075
4.6042                 0.2420377        -167.887         0.670835        66.09279        0.6708348        66.09279        0.2420375       -167.8871
4.6056                 0.2489471       -168.8645        0.6719418        65.12156        0.6719416        65.12156        0.2489469       -168.8645
4.607                  0.2558471       -169.8405        0.6729445        64.14615        0.6729444        64.14615         0.255847       -169.8406
4.6084                 0.2627356       -170.8159         0.673843        63.16674         0.673843        63.16674        0.2627355       -170.8159
4.6098                 0.2696101       -171.7911        0.6746374        62.18348        0.6746373        62.18348          0.26961       -171.7911
4.6112                 0.2764676       -172.7669        0.6753279        61.19648        0.6753278        61.19648        0.2764676       -172.7669
4.6126                 0.2833049       -173.7438        0.6759148        60.20586        0.6759147        60.20587        0.2833049       -173.7438
4.614                  0.2901181       -174.7222        0.6763983         59.2117        0.6763984         59.2117        0.2901183       -174.7223
4.6154                 0.2969033       -175.7027        0.6767791        58.21403        0.6767791        58.21404        0.2969035       -175.7027
4.6168                 0.3036558       -176.6854        0.6770575        57.21291        0.6770575        57.21291         0.303656       -176.6855
4.6182                 0.3103708       -177.6708        0.6772336        56.20832        0.6772336        56.20833        0.3103711       -177.6709
4.6196                 0.3170431        -178.659        0.6773076        55.20028        0.6773076        55.20029        0.3170434       -178.6591
4.621                  0.3236673       -179.6502        0.6772796        54.18876        0.6772797        54.18876        0.3236676       -179.6502
4.6224                 0.3302376        179.3557        0.6771493        53.17373        0.6771493        53.17373        0.3302379        179.3557
4.6238                 0.3367483        178.3586        0.6769163        52.15514        0.6769164        52.15514        0.3367487        178.3586
4.6252                 0.3431935        177.3587        0.6765802        51.13296        0.6765801        51.13296        0.3431939        177.3586
4.6266                 0.3495672         176.356        0.6761398        50.10713        0.6761397        50.10714        0.3495676         176.356
4.628                  0.3558634        175.3509        0.6755942        49.07763        0.6755943        49.07763        0.3558639        175.3508
4.6294                 0.3620765        174.3435        0.6749422        48.04441        0.6749423        48.04441        0.3620769        174.3434
4.6308                 0.3682006        173.3341        0.6741824        47.00746        0.6741825        47.00746         0.368201        173.3341
4.6322                 0.3742303        172.3232        0.6733132        45.96677        0.6733134        45.96677        0.3742308        172.3231
4.6336                 0.3801606        171.3111        0.6723331        44.92234        0.6723332        44.92235         0.380161         171.311
4.635                  0.3859862        170.2982          0.67124        43.87423        0.6712402        43.87423        0.3859867        170.2981
4.6364                 0.3917029        169.2849        0.6700325        42.82246        0.6700326        42.82246        0.3917034        169.2848
4.6378                 0.3973063        168.2716        0.6687086        41.76713        0.6687087        41.76713        0.3973068        168.2715
4.6392                 0.4027927        167.2588        0.6672669        40.70833        0.6672669        40.70833        0.4027931        167.2587
4.6406                 0.4081586        166.2469        0.6657056        39.64618        0.6657057        39.64618         0.408159        166.2468
4.642                  0.4134009        165.2362        0.6640236        38.58082        0.6640236        38.58082        0.4134012        165.2362
4.6434                  0.418517        164.2273        0.6622196        37.51243        0.6622198        37.51244        0.4185173        164.2272
4.6448                 0.4235046        163.2203        0.6602929         36.4412         0.660293         36.4412        0.4235049        163.2203
4.6462                 0.4283618        162.2158        0.6582429        35.36731         0.658243        35.36731        0.4283621        162.2158
4.6476                 0.4330869         161.214        0.6560694        34.29097        0.6560696        34.29098        0.4330872         161.214
4.649                  0.4376787        160.2152        0.6537726        33.21243        0.6537727        33.21243         0.437679        160.2152
4.6504                  0.442136        159.2197        0.6513531         32.1319        0.6513532         32.1319        0.4421363        159.2196
4.6518                 0.4464579        158.2276        0.6488118         31.0496        0.6488119        31.04961        0.4464581        158.2276
4.6532                 0.4506437        157.2393          0.64615        29.96577        0.6461501        29.96577         0.450644        157.2392
4.6546                 0.4546927        156.2548        0.6433695        28.88061        0.6433695        28.88061        0.4546929        156.2548
4.656                  0.4586044        155.2744        0.6404723        27.79432        0.6404725        27.79432        0.4586046        155.2744
4.6574                 0.4623782        154.2982        0.6374609        26.70707        0.6374611        26.70707        0.4623785        154.2981
4.6588                 0.4660137        153.3262         0.634338        25.61903        0.6343381        25.61903        0.4660139        153.3262
4.6602                 0.4695102        152.3587        0.6311064        24.53031        0.6311066        24.53031        0.4695104        152.3587
4.6616                 0.4728671        151.3957        0.6277694          23.441        0.6277695          23.441        0.4728674        151.3957
4.663                  0.4760837        150.4373        0.6243301        22.35117        0.6243303        22.35116        0.4760839        150.4373
4.6644                 0.4791592        149.4837         0.620792        21.26081        0.6207922         21.2608        0.4791594        149.4837
4.6658                 0.4820926         148.535        0.6171582        20.16991        0.6171584         20.1699         0.482093         148.535
4.6672                 0.4848832        147.5913        0.6134321        19.07839        0.6134323        19.07838        0.4848835        147.5913
4.6686                 0.4875299        146.6529        0.6096167        17.98614        0.6096168        17.98613        0.4875302        146.6529
4.67                   0.4900316        145.7198        0.6057147        16.89301        0.6057149          16.893         0.490032        145.7198
4.6714                 0.4923876        144.7925        0.6017289         15.7988         0.601729        15.79878         0.492388        144.7925
4.6728                 0.4945968        143.8711        0.5976613        14.70328        0.5976614        14.70326        0.4945972        143.8711
4.6742                 0.4966583        142.9559        0.5935136        13.60616        0.5935137        13.60614        0.4966589        142.9559
4.6756                  0.498572        142.0474        0.5892872        12.50717        0.5892873        12.50714        0.4985724        142.0474
4.677                  0.5003373        141.1459        0.5849829        11.40596        0.5849829        11.40594        0.5003378        141.1459
4.6784                 0.5019545        140.2519        0.5806008         10.3022        0.5806008        10.30218         0.501955        140.2519
4.6798                 0.5034239        139.3658        0.5761406         9.19554        0.5761406        9.195517        0.5034244        139.3658
4.6812                 0.5047465        138.4883        0.5716012        8.085622        0.5716013        8.085599        0.5047472        138.4883
4.6826                 0.5059243        137.6199        0.5669815        6.972095        0.5669814        6.972072        0.5059248        137.6199
4.684                   0.506959        136.7611        0.5622791        5.854625        0.5622791        5.854602        0.5069595        136.7611
4.6854                 0.5078538        135.9127        0.5574916        4.732901        0.5574915        4.732878        0.5078544        135.9127
4.6868                 0.5086125        135.0751        0.5526158        3.606644        0.5526157        3.606622        0.5086131        135.0751
4.6882                 0.5092396        134.2491        0.5476484        2.475617        0.5476482        2.475596        0.5092403        134.2491
4.6896                 0.5097405        133.4354        0.5425854        1.339634        0.5425853        1.339614        0.5097411        133.4354
4.691                  0.5101215        132.6344        0.5374228       0.1985693        0.5374226       0.1985504        0.5101222        132.6344
4.6924                 0.5103897        131.8469        0.5321563      -0.9476375        0.5321561      -0.9476549        0.5103904        131.8469
4.6938                 0.5105534        131.0733        0.5267815       -2.098971        0.5267813       -2.098987        0.5105541        131.0733
4.6952                 0.5106213        130.3142        0.5212938       -3.255335        0.5212937        -3.25535         0.510622        130.3142
4.6966                 0.5106032          129.57        0.5156892       -4.416545         0.515689       -4.416557        0.5106039          129.57
4.698                  0.5105098         128.841        0.5099634       -5.582326        0.5099632       -5.582337        0.5105105         128.841
4.6994                 0.5103521        128.1275        0.5041126       -6.752303        0.5041125       -6.752311        0.5103527        128.1275
4.7008                 0.5101417        127.4296        0.4981336       -7.926011        0.4981334       -7.926011        0.5101425        127.4296
4.7022                 0.5098912        126.7473        0.4920232       -9.102868        0.4920231       -9.102868         0.509892        126.7473
4.7036                 0.5096128        126.0805        0.4857795       -10.28219        0.4857793       -10.28219        0.5096135        126.0805
4.705                  0.5093193        125.4289        0.4794006       -11.46319        0.4794004       -11.46324        0.5093199        125.4289
4.7064                 0.5090233        124.7921        0.4728857       -12.64504        0.4728855       -12.64504         0.509024        124.7921
4.7078                 0.5087373        124.1696         0.466235        -13.8267        0.4662349        -13.8267         0.508738        124.1696
4.7092                 0.5084735        123.5607        0.4594494       -15.00711        0.4594492       -15.00711        0.5084742        123.5607
4.7106                 0.5082435        122.9643        0.4525305       -16.18504        0.4525304       -16.18503        0.5082441        122.9643
4.712                  0.5080582        122.3796        0.4454815       -17.35926        0.4454813       -17.35926        0.5080588        122.3796
4.7134                 0.5079274        121.8054         0.438306        -18.5284        0.4383058       -18.52839        0.5079281        121.8053
4.7148                 0.5078603        121.2402        0.4310089       -19.69099        0.4310088       -19.69099        0.5078609        121.2402
4.7162                 0.5078643        120.6828        0.4235962       -20.84552        0.4235961       -20.84552        0.5078649        120.6828
4.7176                 0.5079459        120.1315        0.4160747       -21.99038        0.4160746       -21.99038        0.5079464        120.1315
4.719                  0.5081098        119.5849        0.4084523        -23.1239        0.4084522       -23.12389        0.5081103        119.5848
4.7204                 0.5083592        119.0411        0.4007379       -24.24435        0.4007378       -24.24434        0.5083598        119.0411
4.7218                 0.5086959        118.4986         0.392941       -25.34995         0.392941       -25.34994        0.5086964        118.4986
4.7232                 0.5091197        117.9556        0.3850724       -26.43887        0.3850723       -26.43887        0.5091201        117.9556
4.7246                 0.5096286        117.4104        0.3771433       -27.50926        0.3771432       -27.50926        0.5096291        117.4104
4.726                  0.5102196        116.8614        0.3691657       -28.55924        0.3691656       -28.55923        0.5102201        116.8614
4.7274                 0.5108873        116.3071        0.3611521        -29.5869        0.3611521        -29.5869        0.5108877         116.307
4.7288                 0.5116252        115.7458        0.3531159       -30.59035        0.3531159       -30.59035        0.5116257        115.7458
4.7302                 0.5124254        115.1763        0.3450705        -31.5677        0.3450705        -31.5677        0.5124258        115.1763
4.7316                 0.5132785        114.5973        0.3370296       -32.51708        0.3370296       -32.51708        0.5132789        114.5973
4.733                  0.5141741        114.0078        0.3290075       -33.43664        0.3290075       -33.43664        0.5141745        114.0078
4.7344                 0.5151007        113.4067        0.3210181       -34.32462        0.3210181       -34.32462        0.5151012        113.4067
4.7358                 0.5160463        112.7932        0.3130756       -35.17929        0.3130756        -35.1793        0.5160468        112.7932
4.7372                  0.516998        112.1669        0.3051939       -35.99903        0.3051938       -35.99903        0.5169984        112.1669
4.7386                 0.5179426        111.5272        0.2973867       -36.78227        0.2973866       -36.78228        0.5179429        111.5272
4.74                   0.5188666        110.8738        0.2896672       -37.52764        0.2896671       -37.52764        0.5188669        110.8738
4.7414                 0.5197566        110.2068        0.2820482        -38.2338        0.2820482       -38.23381         0.519757        110.2068
4.7428                 0.5205994        109.5261         0.274542       -38.89965         0.274542       -38.89966        0.5205997        109.5261
4.7442                 0.5213819        108.8319          0.26716        -39.5242        0.2671599       -39.52421        0.5213823        108.8319
4.7456                 0.5220918        108.1247        0.2599129       -40.10667        0.2599128       -40.10668        0.5220922        108.1247
4.747                  0.5227173        107.4049        0.2528103       -40.64646        0.2528102       -40.64647        0.5227177        107.4049
4.7484                 0.5232473        106.6732        0.2458611       -41.14319         0.245861        -41.1432        0.5232477        106.6732
4.7498                 0.5236719        105.9303         0.239073       -41.59669        0.2390729       -41.59669        0.5236722        105.9303
4.7512                 0.5239818        105.1769        0.2324525       -42.00702        0.2324524       -42.00702        0.5239821        105.1769
4.7526                 0.5241691        104.4141        0.2260051       -42.37446        0.2260051       -42.37445        0.5241695        104.4141
4.754                  0.5242269        103.6426        0.2197351        -42.6995        0.2197351       -42.69948        0.5242272        103.6426
4.7554                 0.5241496        102.8636        0.2136455       -42.98286        0.2136455       -42.98285          0.52415        102.8636
4.7568                 0.5239328        102.0781        0.2077381       -43.22545         0.207738       -43.22545        0.5239332        102.0781
4.7582                 0.5235732         101.287        0.2020136        -43.4284        0.2020135       -43.42839        0.5235736         101.287
4.7596                 0.5230689        100.4916        0.1964714       -43.59295        0.1964714       -43.59294        0.5230693        100.4916
4.761                   0.522419        99.69275        0.1911101       -43.72051        0.1911101        -43.7205        0.5224194        99.69275
4.7624                  0.521624        98.89153        0.1859271       -43.81257        0.1859271       -43.81255        0.5216245        98.89155
4.7638                 0.5206852        98.08897        0.1809189       -43.87069        0.1809188       -43.87069        0.5206857        98.08897
4.7652                 0.5196051        97.28597        0.1760811       -43.89649        0.1760811       -43.89648        0.5196056        97.28602
4.7666                 0.5183871        96.48347        0.1714088       -43.89153        0.1714088       -43.89153        0.5183876         96.4835
4.768                  0.5170354        95.68227        0.1668963       -43.85737        0.1668963       -43.85737        0.5170358         95.6823
4.7694                 0.5155549        94.88317        0.1625377       -43.79545        0.1625377       -43.79545        0.5155554         94.8832
4.7708                 0.5139512        94.08683        0.1583266        -43.7071        0.1583265       -43.70712        0.5139517        94.08683
4.7722                 0.5122305        93.29384        0.1542563       -43.59351        0.1542563       -43.59353         0.512231        93.29386
4.7736                 0.5103991        92.50479        0.1503202       -43.45568        0.1503202       -43.45569        0.5103996        92.50482
4.775                  0.5084641        91.72009        0.1465118       -43.29439        0.1465118       -43.29442        0.5084645        91.72012
4.7764                 0.5064319        90.94009        0.1428245       -43.11026        0.1428245        -43.1103        0.5064324        90.94011
4.7778                   0.50431        90.16506        0.1392522       -42.90365        0.1392522       -42.90369        0.5043105        90.16509
4.7792                 0.5021051        89.39518        0.1357891       -42.67468        0.1357891       -42.67473        0.5021056        89.39521
4.7806                 0.4998239        88.63054        0.1324296       -42.42329        0.1324296       -42.42334        0.4998244        88.63059
4.782                   0.497473        87.87118        0.1291687       -42.14916        0.1291687       -42.14923        0.4974735        87.87121
4.7834                 0.4950586        87.11705        0.1260019       -41.85183        0.1260019        -41.8519         0.495059        87.11705
4.7848                 0.4925863        86.36796        0.1229252       -41.53062        0.1229251        -41.5307        0.4925868        86.36799
4.7862                 0.4900616        85.62384        0.1199351       -41.18472        0.1199349       -41.18479         0.490062        85.62386
4.7876                 0.4874891        84.88442        0.1170285       -40.81318        0.1170283       -40.81326        0.4874896        84.88442
4.789                  0.4848733        84.14937         0.114203       -40.41498        0.1142028       -40.41505        0.4848738         84.1494
4.7904                 0.4822177        83.41847        0.1114565         -39.989        0.1114563       -39.98907        0.4822181         83.4185
4.7918                 0.4795255        82.69136        0.1087873       -39.53412        0.1087871       -39.53418        0.4795259        82.69138
4.7932                 0.4767992        81.96769        0.1061944        -39.0492        0.1061942       -39.04925        0.4767995        81.96769
4.7946                 0.4740408        81.24714        0.1036767       -38.53313        0.1036764       -38.53318        0.4740412        81.24716
4.796                   0.471252        80.52934        0.1012336       -37.98488        0.1012333       -37.98491        0.4712523        80.52935
4.7974                 0.4684337        79.81399       0.09886467       -37.40347       0.09886437       -37.40348        0.4684341        79.81401
4.7988                 0.4655868        79.10078       0.09656967       -36.78804       0.09656936       -36.78804        0.4655871        79.10078
4.8002                 0.4627113        78.38941       0.09434848       -36.13785       0.09434815       -36.13784        0.4627117        78.38941
4.8016                 0.4598075        77.67964       0.09220098       -35.45232       0.09220066       -35.45228        0.4598079        77.67965
4.803                  0.4568752        76.97127       0.09012717       -34.73098       0.09012684       -34.73093        0.4568755        76.97127
4.8044                 0.4539139        76.26411       0.08812698       -33.97355       0.08812665       -33.97347        0.4539142        76.26411
4.8058                 0.4509233        75.55802        0.0862003       -33.17988       0.08619999       -33.17978        0.4509236        75.55802
4.8072                 0.4479029        74.85292       0.08434695          -32.35       0.08434665       -32.34988        0.4479032        74.85292
4.8086                 0.4448525        74.14872       0.08256671       -31.48408       0.08256644       -31.48392        0.4448527        74.14875
4.81                   0.4417716        73.44545       0.08085922       -30.58241       0.08085897       -30.58223        0.4417718        73.44545
4.8114                   0.43866         72.7431       0.07922407       -29.64544       0.07922384       -29.64523        0.4386602         72.7431
4.8128                  0.435518        72.04169       0.07766071       -28.67374        0.0776605       -28.67351        0.4355182        72.04169
4.8142                 0.4323458         71.3413       0.07616858       -27.66796       0.07616841       -27.66771        0.4323459        71.34132
4.8156                 0.4291437        70.64203       0.07474701       -26.62887       0.07474687       -26.62861        0.4291439        70.64205
4.817                  0.4259128        69.94396        0.0733953       -25.55735        0.0733952       -25.55707        0.4259129        69.94398
4.8184                 0.4226539        69.24719       0.07211273       -24.45434       0.07211268       -24.45404         0.422654         69.2472
4.8198                 0.4193683         68.5518       0.07089856       -23.32086       0.07089854       -23.32056        0.4193684        68.55183
4.8212                 0.4160577         67.8579       0.06975206       -22.15803       0.06975209       -22.15773        0.4160578        67.85791
4.8226                 0.4127237        67.16553       0.06867256       -20.96705       0.06867261       -20.96675        0.4127238        67.16556
4.824                  0.4093685        66.47475       0.06765935       -19.74922       0.06765946       -19.74893        0.4093685        66.47477
4.8254                 0.4059939        65.78557       0.06671185       -18.50594       0.06671199       -18.50566         0.405994        65.78558
4.8268                 0.4026024        65.09794       0.06582947       -17.23874       0.06582964       -17.23848        0.4026024        65.09797
4.8282                 0.3991961        64.41182       0.06501169       -15.94925       0.06501188       -15.94901        0.3991962        64.41185
4.8296                 0.3957773        63.72711       0.06425804       -14.63927       0.06425826       -14.63905        0.3957774        63.72714
4.831                  0.3923484        63.04363       0.06356806       -13.31071       0.06356829       -13.31052        0.3923485        63.04366
4.8324                 0.3889115        62.36118       0.06294131       -11.96566       0.06294156        -11.9655        0.3889116         62.3612
4.8338                 0.3854686         61.6795       0.06237737       -10.60634       0.06237764        -10.6062        0.3854687        61.67953
4.8352                 0.3820216        60.99829        0.0618758       -9.235102       0.06187607          -9.235        0.3820217        60.99832
4.8366                 0.3785721        60.31722       0.06143613       -7.854448        0.0614364       -7.854377        0.3785721        60.31724
4.838                  0.3751213        59.63585       0.06105783       -6.466982        0.0610581       -6.466942        0.3751214        59.63589
4.8394                 0.3716704         58.9538       0.06074034       -5.075387       0.06074059       -5.075376        0.3716705        58.95383
4.8408                 0.3682201        58.27058       0.06048298        -3.68241       0.06048323       -3.682426        0.3682202        58.27061
4.8422                 0.3647708        57.58569       0.06028506       -2.290817        0.0602853       -2.290858        0.3647708        57.58572
4.8436                 0.3613224        56.89864       0.06014577      -0.9033642       0.06014599      -0.9034265        0.3613224        56.89867
4.845                  0.3578747        56.20888       0.06006423       0.4772401       0.06006443       0.4771591        0.3578747        56.20891
4.8464                  0.354427        55.51588       0.06003951        1.848368       0.06003969        1.848272         0.354427        55.51591
4.8478                 0.3509783        54.81911       0.06007062        3.207504       0.06007078        3.207395        0.3509783        54.81914
4.8492                 0.3475274        54.11806       0.06015652        4.552269       0.06015666        4.552153        0.3475273         54.1181
4.8506                 0.3440726        53.41221       0.06029617        5.880447       0.06029629        5.880324        0.3440725        53.41225
4.852                  0.3406122        52.70108       0.06048854        7.189988       0.06048864        7.189863        0.3406121        52.70111
4.8534                 0.3371443        51.98421       0.06073262        8.479024       0.06073268        8.478901        0.3371442        51.98425
4.8548                 0.3336667        51.26117        0.0610274        9.745871       0.06102746        9.745749        0.3336667         51.2612
4.8562                 0.3301773        50.53159       0.06137202        10.98901       0.06137205         10.9889        0.3301771        50.53162
4.8576                 0.3266737        49.79511       0.06176563         12.2071       0.06176566        12.20699        0.3266736        49.79514
4.859                  0.3231538        49.05141       0.06220752        13.39893       0.06220752        13.39882        0.3231537        49.05145
4.8604                 0.3196154        48.30024       0.06269705        14.56342       0.06269705        14.56332        0.3196153        48.30028
4.8618                 0.3160563        47.54137       0.06323372        15.69961       0.06323372        15.69952        0.3160562        47.54141
4.8632                 0.3124748        46.77461       0.06381713        16.80662       0.06381711        16.80655        0.3124746        46.77465
4.8646                 0.3088689        45.99979       0.06444696        17.88366       0.06444694        17.88359        0.3088687        45.99984
4.866                  0.3052371        45.21679       0.06512302        18.92995         0.065123        18.92989        0.3052369        45.21684
4.8674                 0.3015781         44.4255       0.06584522        19.94479       0.06584518        19.94474        0.3015779        44.42555
4.8688                 0.2978909        43.62582       0.06661349        20.92749       0.06661345        20.92745        0.2978907        43.62587
4.8702                 0.2941745        42.81767       0.06742786        21.87739       0.06742782        21.87735        0.2941742        42.81771
4.8716                 0.2904283        42.00094       0.06828839        22.79384       0.06828837         22.7938        0.2904281        42.00099