! TOUCHSTONE file generated by CST MICROWAVE STUDIO
! Date and time: Sun Dec  1 17:16:59 2024
! Project name: test_tuning.cst
! Parameters = {airCoaxOuterDiameter=3; chamferAngle=45; chamferWidth=24; connectorLength=10; drillingHoleDiameter=4.1; feedLength=60; flareDiameter=130; flareLength=70; gratingDistance=0; gratingGap=1.90274; outletLength=30; polarizerLength=78; probe1Diameter=1.3; probe1Distance=14; probe1Length=12; probe2Diameter=1.3; probe2Distance=0; probe2Length=12; probeLength=12; smaInnerDiameter=1.3; smaOuterDiameter=4.1; transitionCoefficient=1.33; waveguideFeedLength=30; waveguideSide=50; waveguideThickness=3; wireCount=25; wireDiameter=1.17699}
! Header version: 2024
! Port assignment regex: !\s*Touchstone port\s*([0-9]+)\s*=\s*(CST MWS port|CST DES external port|CST DES block port)\s*(.+)\s* \(\"(.*)\"\)(\s*mode\s*([0-9]+))?.*
! Touchstone port assignment:
! Touchstone port 1 = CST MWS port 1 ("Input1")
! Touchstone port 2 = CST MWS port 2 ("Input2")
# GHz S MA R 50
4.6                    0.2020719        -156.132         0.605915        63.89963        0.6059148        63.89965        0.2020722        -156.132
4.6014                 0.2083428       -157.0705        0.6079753        63.02475        0.6079753        63.02478        0.2083431       -157.0706
4.6028                 0.2146821       -158.0072        0.6099462        62.14051        0.6099461        62.14054        0.2146824       -158.0073
4.6042                 0.2210868       -158.9439         0.611824        61.24721        0.6118239        61.24724        0.2210871       -158.9439
4.6056                 0.2275535        -159.882        0.6136057        60.34512        0.6136056        60.34514        0.2275539        -159.882
4.607                  0.2340783       -160.8231        0.6152883        59.43454        0.6152883        59.43457        0.2340787       -160.8231
4.6084                 0.2406567       -161.7684        0.6168691        58.51576        0.6168692        58.51579        0.2406571       -161.7684
4.6098                 0.2472837       -162.7188        0.6183455        57.58909        0.6183456        57.58911        0.2472841       -162.7188
4.6112                 0.2539539       -163.6752        0.6197151         56.6548        0.6197152        56.65481        0.2539544       -163.6753
4.6126                 0.2606615       -164.6385        0.6209758        55.71317        0.6209758        55.71319         0.260662       -164.6385
4.614                  0.2674001        -165.609        0.6221254         54.7645        0.6221253        54.76452        0.2674006        -165.609
4.6154                 0.2741632       -166.5872        0.6231621        53.80904        0.6231622        53.80907        0.2741637       -166.5873
4.6168                 0.2809435       -167.5736        0.6240844        52.84708        0.6240846         52.8471        0.2809441       -167.5736
4.6182                  0.287734       -168.5682        0.6248909        51.87888         0.624891        51.87889        0.2877345       -168.5682
4.6196                 0.2945269       -169.5711          0.62558         50.9047        0.6255802         50.9047        0.2945274       -169.5712
4.621                  0.3013144       -170.5825        0.6261509        49.92477         0.626151        49.92479         0.301315       -170.5825
4.6224                 0.3080885       -171.6021        0.6266022        48.93936        0.6266023        48.93937        0.3080891       -171.6021
4.6238                 0.3148411       -172.6298        0.6269334         47.9487        0.6269335        47.94871        0.3148417       -172.6299
4.6252                 0.3215639       -173.6655        0.6271435        46.95302        0.6271436        46.95303        0.3215645       -173.6655
4.6266                 0.3282485       -174.7087         0.627232        45.95256        0.6272321        45.95256        0.3282492       -174.7088
4.628                  0.3348867       -175.7592        0.6271984        44.94751        0.6271985        44.94752        0.3348874       -175.7593
4.6294                 0.3414701       -176.8166        0.6270424         43.9381        0.6270425        43.93811        0.3414708       -176.8166
4.6308                 0.3479905       -177.8804        0.6267636        42.92453        0.6267637        42.92454        0.3479913       -177.8804
4.6322                 0.3544399       -178.9501        0.6263619        41.90702         0.626362        41.90703        0.3544405       -178.9502
4.6336                   0.36081        179.9747        0.6258372        40.88574        0.6258372        40.88575        0.3608107        179.9746
4.635                  0.3670931        178.8946        0.6251894         39.8609        0.6251895        39.86091        0.3670939        178.8945
4.6364                 0.3732818        177.8101        0.6244188        38.83267        0.6244188        38.83269        0.3732825          177.81
4.6378                 0.3793686        176.7219        0.6235253        37.80126        0.6235254        37.80127        0.3793693        176.7218
4.6392                 0.3853465        175.6304        0.6225093        36.76683        0.6225092        36.76684        0.3853472        175.6304
4.6406                 0.3912086        174.5364         0.621371        35.72957        0.6213709        35.72958        0.3912093        174.5363
4.642                  0.3969488        173.4404        0.6201108        34.68965        0.6201108        34.68965        0.3969495        173.4403
4.6434                 0.4025607         172.343        0.6187291        33.64725         0.618729        33.64725        0.4025614        172.3429
4.6448                  0.408039        171.2448        0.6172265        32.60254        0.6172265        32.60255        0.4080396        171.2447
4.6462                 0.4133781        170.1464        0.6156034         31.5557        0.6156035        31.55571        0.4133788        170.1464
4.6476                 0.4185733        169.0485        0.6138607        30.50692        0.6138606        30.50693         0.418574        169.0485
4.649                  0.4236203        167.9517        0.6119989        29.45637        0.6119989        29.45638        0.4236211        167.9516
4.6504                 0.4285151        166.8564        0.6100189        28.40422        0.6100189        28.40424        0.4285158        166.8563
4.6518                 0.4332542        165.7634        0.6079215        27.35068        0.6079215        27.35069        0.4332549        165.7633
4.6532                 0.4378345        164.6731        0.6057077        26.29592        0.6057077        26.29593        0.4378352         164.673
4.6546                 0.4422534        163.5862        0.6033785        25.24014        0.6033785        25.24015        0.4422541        163.5861
4.656                   0.446509        162.5031        0.6009352        24.18353        0.6009352        24.18355        0.4465096         162.503
4.6574                 0.4505994        161.4244        0.5983789        23.12629        0.5983789        23.12631           0.4506        161.4243
4.6588                 0.4545236        160.3505        0.5957109        22.06864         0.595711        22.06866        0.4545242        160.3505
4.6602                 0.4582808        159.2821        0.5929329        21.01078        0.5929329         21.0108        0.4582814         159.282
4.6616                 0.4618707        158.2194        0.5900463        19.95293        0.5900464        19.95295        0.4618713        158.2193
4.663                  0.4652935        157.1629         0.587053         18.8953         0.587053        18.89533         0.465294        157.1628
4.6644                 0.4685497        156.1131        0.5839547        17.83814        0.5839547        17.83816        0.4685502         156.113
4.6658                 0.4716401        155.0703        0.5807535        16.78165        0.5807536        16.78168        0.4716406        155.0702
4.6672                 0.4745663        154.0349        0.5774515         15.7261        0.5774515        15.72613        0.4745668        154.0348
4.6686                 0.4773297        153.0071         0.574051        14.67171        0.5740511        14.67173        0.4773302        153.0071
4.67                   0.4799325        151.9874        0.5705546        13.61872        0.5705547        13.61875         0.479933        151.9873
4.6714                 0.4823768        150.9759        0.5669648        12.56739        0.5669649        12.56742        0.4823773        150.9759
4.6728                 0.4846653         149.973        0.5632845        11.51797        0.5632845          11.518        0.4846658        149.9729
4.6742                 0.4868008        148.9787        0.5595165         10.4707        0.5595166        10.47072        0.4868013        148.9787
4.6756                 0.4887864        147.9934         0.555664        9.425828        0.5556641        9.425858        0.4887868        147.9934
4.677                  0.4906252        147.0172        0.5517304        8.383615        0.5517305        8.383645        0.4906256        147.0171
4.6784                 0.4923205          146.05         0.547719        7.344305        0.5477192        7.344333        0.4923209          146.05
4.6798                  0.493876        145.0922        0.5436335        6.308139        0.5436338        6.308167        0.4938764        145.0922
4.6812                 0.4952951        144.1437        0.5394777        5.275358        0.5394779        5.275385        0.4952955        144.1437
4.6826                 0.4965814        143.2046        0.5352555        4.246192        0.5352557        4.246219        0.4965818        143.2046
4.684                  0.4977389        142.2749         0.530971        3.220867        0.5309712        3.220893        0.4977392        142.2748
4.6854                 0.4987708        141.3545        0.5266284        2.199594        0.5266287        2.199619        0.4987711        141.3545
4.6868                  0.499681        140.4435        0.5222321        1.182575        0.5222324        1.182599        0.4996813        140.4434
4.6882                 0.5004729        139.5417        0.5177864        0.169997        0.5177867        0.170019        0.5004732        139.5417
4.6896                 0.5011499        138.6491         0.513296      -0.8379702        0.5132963      -0.8379498        0.5011503        138.6491
4.691                  0.5017156        137.7657        0.5087655       -1.841175        0.5087658       -1.841156        0.5017159        137.7656
4.6924                  0.502173        136.8911        0.5041995       -2.839486        0.5041999       -2.839469        0.5021734        136.8911
4.6938                 0.5025251        136.0255        0.4996029       -3.832795        0.4996033        -3.83278        0.5025255        136.0255
4.6952                  0.502775        135.1685        0.4949805       -4.821018        0.4949809       -4.821005        0.5027754        135.1685
4.6966                 0.5029251        134.3201         0.490337       -5.804099        0.4903374        -5.80409        0.5029255        134.3201
4.698                   0.502978        133.4801        0.4856773       -6.782014        0.4856777       -6.782006        0.5029784        133.4801
4.6994                  0.502936        132.6483         0.481006       -7.754766        0.4810064       -7.754761        0.5029365        132.6483
4.7008                 0.5028012        131.8246        0.4763279       -8.722379        0.4763283       -8.722379        0.5028016        131.8246
4.7022                 0.5025753        131.0088        0.4716476       -9.684988         0.471648       -9.684988        0.5025757        131.0088
4.7036                   0.50226        130.2008        0.4669697        -10.6426          0.46697        -10.6426        0.5022604        130.2008
4.705                  0.5018568        129.4005        0.4622984       -11.59545        0.4622988       -11.59545        0.5018572        129.4005
4.7064                 0.5013667        128.6077        0.4576381       -12.54371        0.4576385       -12.54371        0.5013671        128.6077
4.7078                  0.500791        127.8223        0.4529929       -13.48761        0.4529932       -13.48761        0.5007914        127.8223
4.7092                 0.5001304        127.0442        0.4483664       -14.42738        0.4483668       -14.42738        0.5001309        127.0442
4.7106                 0.4993857        126.2733        0.4437625       -15.36339        0.4437629       -15.36341        0.4993861        126.2733
4.712                  0.4985576        125.5097        0.4391845       -16.29599        0.4391849         -16.296         0.498558        125.5096
4.7134                 0.4976464        124.7531        0.4346356       -17.22555         0.434636       -17.22557        0.4976468        124.7531
4.7148                 0.4966526        124.0038        0.4301186       -18.15255        0.4301189       -18.15257        0.4966531        124.0038
4.7162                 0.4955766        123.2617         0.425636       -19.07746        0.4256363       -19.07748         0.495577        123.2617
4.7176                 0.4944186        122.5268        0.4211901        -20.0008        0.4211903       -20.00083        0.4944191        122.5268
4.719                  0.4931791        121.7994        0.4167828       -20.92315         0.416783       -20.92317        0.4931796        121.7994
4.7204                 0.4918584        121.0793        0.4124155        -21.8451        0.4124158       -21.84512        0.4918588        121.0793
4.7218                 0.4904569         120.367        0.4080897       -22.76728        0.4080899       -22.76731        0.4904574         120.367
4.7232                 0.4889752        119.6625         0.403806       -23.69037        0.4038061        -23.6904        0.4889756        119.6625
4.7246                  0.487414         118.966         0.399565       -24.61507        0.3995651        -24.6151        0.4874145         118.966
4.726                  0.4857742        118.2778        0.3953668       -25.54209         0.395367       -25.54212        0.4857746        118.2778
4.7274                 0.4840568        117.5983        0.3912113       -26.47217        0.3912114       -26.47221        0.4840572        117.5983
4.7288                 0.4822629        116.9277        0.3870977       -27.40609        0.3870979       -27.40612        0.4822634        116.9277
4.7302                 0.4803943        116.2663        0.3830254       -28.34461        0.3830255       -28.34465        0.4803947        116.2663
4.7316                 0.4784527        115.6145        0.3789929       -29.28853         0.378993       -29.28856        0.4784531        115.6145
4.733                  0.4764401        114.9728        0.3749987       -30.23863        0.3749988       -30.23866        0.4764406        114.9728
4.7344                 0.4743591        114.3416        0.3710411        -31.1957        0.3710411       -31.19574        0.4743595        114.3416
4.7358                 0.4722124        113.7212        0.3671177       -32.16055        0.3671178       -32.16058        0.4722128        113.7212
4.7372                  0.470003         113.112        0.3632265       -33.13394        0.3632264       -33.13397        0.4700035         113.112
4.7386                 0.4677346        112.5147        0.3593645       -34.11665        0.3593645       -34.11668        0.4677351        112.5147
4.74                   0.4654109        111.9296        0.3555291       -35.10945        0.3555291       -35.10948        0.4654114        111.9296
4.7414                 0.4630363        111.3572        0.3517173       -36.11306        0.3517172       -36.11309        0.4630368        111.3572
4.7428                 0.4606153        110.7979        0.3479259       -37.12821        0.3479258       -37.12823        0.4606158        110.7979
4.7442                  0.458153        110.2522        0.3441517       -38.15559        0.3441516       -38.15561        0.4581535        110.2522
4.7456                 0.4556547        109.7204        0.3403913       -39.19586        0.3403912       -39.19588        0.4556551        109.7204
4.747                  0.4531261        109.2031        0.3366414       -40.24965        0.3366413       -40.24968        0.4531265        109.2031
4.7484                 0.4505733        108.7006        0.3328985       -41.31759        0.3328984       -41.31762        0.4505737        108.7006
4.7498                 0.4480025        108.2132        0.3291591       -42.40024        0.3291591       -42.40025         0.448003        108.2132
4.7512                 0.4454206        107.7412        0.3254201       -43.49812          0.32542       -43.49814         0.445421        107.7412
4.7526                 0.4428343        107.2849         0.321678       -44.61176        0.3216779       -44.61177        0.4428347        107.2848
4.754                  0.4402507        106.8444        0.3179297       -45.74161        0.3179296       -45.74163        0.4402511        106.8444
4.7554                 0.4376772        106.4199         0.314172       -46.88812        0.3141719       -46.88812        0.4376776        106.4199
4.7568                 0.4351211        106.0114        0.3104021       -48.05168         0.310402       -48.05169        0.4351215        106.0114
4.7582                 0.4325899         105.619        0.3066171       -49.23266         0.306617       -49.23266        0.4325903         105.619
4.7596                 0.4300912        105.2426        0.3028146       -50.43141        0.3028145       -50.43142        0.4300916        105.2426
4.761                  0.4276323        104.8819        0.2989921       -51.64823         0.298992       -51.64823        0.4276327        104.8819
4.7624                 0.4252207        104.5367        0.2951477       -52.88341        0.2951476        -52.8834        0.4252211        104.5367
4.7638                 0.4228637        104.2066        0.2912793       -54.13718        0.2912793       -54.13718         0.422864        104.2066
4.7652                 0.4205681        103.8912        0.2873856       -55.40979        0.2873855       -55.40979        0.4205685        103.8912
4.7666                 0.4183409        103.5899         0.283465       -56.70147         0.283465       -56.70146        0.4183412          103.59
4.768                  0.4161883        103.3022        0.2795168       -58.01238        0.2795167       -58.01238        0.4161887        103.3022
4.7694                 0.4141165        103.0271          0.27554       -59.34273          0.27554       -59.34272        0.4141169        103.0272
4.7708                  0.412131         102.764        0.2715344       -60.69267        0.2715343       -60.69266        0.4121313         102.764
4.7722                 0.4102368        102.5118        0.2674997       -62.06238        0.2674997       -62.06236        0.4102372        102.5118
4.7736                 0.4084385        102.2696        0.2634363       -63.45201        0.2634363       -63.45199        0.4084389        102.2697
4.775                    0.40674        102.0363        0.2593446       -64.86171        0.2593446       -64.86169        0.4067403        102.0363
4.7764                 0.4051445        101.8107        0.2552254       -66.29166        0.2552254       -66.29163        0.4051448        101.8107
4.7778                 0.4036545        101.5916        0.2510798         -67.742        0.2510798       -67.74198        0.4036549        101.5916
4.7792                  0.402272        101.3776        0.2469094       -69.21293        0.2469094       -69.21292        0.4022724        101.3777
4.7806                  0.400998        101.1676        0.2427157       -70.70464        0.2427157       -70.70463        0.4009984        101.1676
4.782                   0.399833        100.9602        0.2385008       -72.21734        0.2385008       -72.21732        0.3998334        100.9602
4.7834                 0.3987765        100.7539         0.234267       -73.75126         0.234267       -73.75124        0.3987768        100.7539
4.7848                 0.3978275        100.5475        0.2300167       -75.30664        0.2300168       -75.30663        0.3978278        100.5475
4.7862                  0.396984        100.3396        0.2257529       -76.88378        0.2257529       -76.88378        0.3969844        100.3396
4.7876                 0.3962436        100.1288        0.2214785       -78.48301        0.2214785       -78.48299         0.396244        100.1289
4.789                   0.395603        99.91398        0.2171968       -80.10466        0.2171969       -80.10466        0.3956034        99.91401
4.7904                 0.3950583        99.69375        0.2129113       -81.74915        0.2129114       -81.74912        0.3950587         99.6938
4.7918                  0.394605        99.46698        0.2086258       -83.41687        0.2086258       -83.41687        0.3946054          99.467
4.7932                  0.394238        99.23254        0.2043441       -85.10834        0.2043442       -85.10833        0.3942384        99.23257
4.7946                 0.3939518         98.9894        0.2000703       -86.82409        0.2000704       -86.82409        0.3939521        98.98939
4.796                  0.3937402        98.73651        0.1958087       -88.56468        0.1958088       -88.56465        0.3937406        98.73654
4.7974                  0.393597        98.47307        0.1915638       -90.33074        0.1915639       -90.33074        0.3935973        98.47309
4.7988                 0.3935153        98.19832          0.18734       -92.12298        0.1873401       -92.12297        0.3935156        98.19831
4.8002                 0.3934881        97.91146        0.1831421       -93.94216        0.1831422       -93.94216        0.3934884        97.91152
4.8016                 0.3935081          97.612        0.1789748       -95.78902        0.1789749       -95.78902        0.3935084        97.61206
4.803                  0.3935678        97.29942        0.1748432        -97.6645        0.1748433        -97.6645        0.3935682        97.29945
4.8044                   0.39366        96.97328        0.1707522       -99.56945        0.1707523       -99.56946        0.3936603        96.97328
4.8058                 0.3937768        96.63328        0.1667069       -101.5049        0.1667071       -101.5049        0.3937771        96.63331
4.8072                  0.393911        96.27925        0.1627126       -103.4718        0.1627127       -103.4718        0.3939113        96.27928
4.8086                  0.394055        95.91105        0.1587745       -105.4712        0.1587746       -105.4713        0.3940553        95.91107
4.81                   0.3942015        95.52863        0.1548978       -107.5043        0.1548979       -107.5044        0.3942017        95.52865
4.8114                 0.3943433        95.13204        0.1510879       -109.5722         0.151088       -109.5722        0.3943436        95.13205
4.8128                 0.3944736        94.72138        0.1473502        -111.676        0.1473503        -111.676        0.3944738        94.72139
4.8142                 0.3945856        94.29686        0.1436899       -113.8168          0.14369       -113.8168        0.3945858        94.29687
4.8156                 0.3946729        93.85871        0.1401126       -115.9958        0.1401127       -115.9958        0.3946732        93.85873
4.817                  0.3947295        93.40725        0.1366235       -118.2141        0.1366236       -118.2141        0.3947297        93.40726
4.8184                 0.3947495        92.94284        0.1332281       -120.4726        0.1332282       -120.4726        0.3947498        92.94286
4.8198                 0.3947276        92.46589        0.1299315       -122.7723        0.1299316       -122.7723        0.3947279         92.4659
4.8212                 0.3946588        91.97684        0.1267391        -125.114        0.1267392        -125.114         0.394659        91.97684
4.8226                 0.3945383        91.47615         0.123656       -127.4983        0.1236561       -127.4983        0.3945385        91.47616
4.824                   0.394362        90.96437        0.1206873       -129.9256        0.1206873       -129.9256        0.3943622        90.96438
4.8254                  0.394126        90.44202        0.1178378        -132.396        0.1178379       -132.3961        0.3941262        90.44203
4.8268                 0.3938267        89.90962        0.1151124       -134.9096        0.1151124       -134.9096         0.393827        89.90965
4.8282                 0.3934614         89.3678        0.1125156       -137.4656        0.1125156       -137.4657        0.3934615        89.36783
4.8296                 0.3930271        88.81709        0.1100518       -140.0634        0.1100518       -140.0634        0.3930273         88.8171
4.831                  0.3925217        88.25807         0.107725       -142.7015        0.1077251       -142.7016        0.3925219         88.2581
4.8324                 0.3919434        87.69136        0.1055391       -145.3781        0.1055391       -145.3782        0.3919435        87.69137
4.8338                 0.3912906        87.11749        0.1034973        -148.091        0.1034974       -148.0911        0.3912908        87.11753
4.8352                 0.3905623        86.53709        0.1016029       -150.8373         0.101603       -150.8373        0.3905624        86.53712
4.8366                 0.3897574        85.95069       0.09985835       -153.6135       0.09985841       -153.6135        0.3897576        85.95073
4.838                  0.3888758        85.35887        0.0982657       -156.4157       0.09826576       -156.4157        0.3888759        85.35889
4.8394                 0.3879172        84.76216       0.09682656       -159.2394       0.09682662       -159.2395        0.3879173         84.7622
4.8408                 0.3868817        84.16109       0.09554193       -162.0797       0.09554198       -162.0797        0.3868818        84.16112
4.8422                 0.3857698        83.55617       0.09441222       -164.9311       0.09441228       -164.9312          0.38577         83.5562
4.8436                 0.3845822        82.94789       0.09343728        -167.788       0.09343731        -167.788        0.3845824        82.94792
4.845                  0.3833198         82.3367       0.09261624       -170.6443       0.09261627       -170.6443        0.3833199        82.33675
4.8464                 0.3819837        81.72308       0.09194775       -173.4938       0.09194778       -173.4939        0.3819838        81.72312
4.8478                 0.3805752        81.10744       0.09142977       -176.3305        0.0914298       -176.3305        0.3805753        81.10749
4.8492                 0.3790959        80.49016       0.09105974       -179.1481       0.09105976       -179.1481        0.3790959        80.49021
4.8506                 0.3775472        79.87163       0.09083455        178.0593       0.09083457        178.0592        0.3775473        79.87169
4.852                  0.3759311         79.2522       0.09075064        175.2972       0.09075065        175.2972        0.3759311        79.25225
4.8534                 0.3742493        78.63217       0.09080396         172.571       0.09080399        172.5709        0.3742493        78.63222
4.8548                 0.3725038        78.01187       0.09099019        169.8854        0.0909902        169.8853        0.3725039        78.01191
4.8562                 0.3706967        77.39153       0.09130464        167.2445       0.09130465        167.2445        0.3706968        77.39157
4.8576                   0.36883        76.77141       0.09174241        164.6521       0.09174242        164.6521        0.3688301        76.77146
4.859                  0.3669057        76.15173       0.09229845        162.1113       0.09229846        162.1112        0.3669059        76.15179
4.8604                 0.3649261        75.53268       0.09296757        159.6243       0.09296757        159.6243        0.3649262        75.53275
4.8618                 0.3628932        74.91442       0.09374457        157.1932       0.09374457        157.1931        0.3628933        74.91449
4.8632                  0.360809        74.29713       0.09462424        154.8191       0.09462423         154.819        0.3608091        74.29718
4.8646                 0.3586756        73.68089        0.0956014        152.5028       0.09560139        152.5027        0.3586757        73.68095
4.866                  0.3564951         73.0658       0.09667096        150.2445       0.09667095        150.2445        0.3564952        73.06587
4.8674                 0.3542693        72.45199       0.09782797        148.0441       0.09782795         148.044        0.3542694        72.45205
4.8688                 0.3520002        71.83948       0.09906757        145.9009       0.09906757        145.9008        0.3520003        71.83953
4.8702                 0.3496895         71.2283        0.1003851         143.814        0.1003851        143.8139        0.3496896        71.22837
4.8716                  0.347339        70.61853        0.1017761        141.7822        0.1017761        141.7822        0.3473391        70.61858