! TOUCHSTONE file generated by CST MICROWAVE STUDIO
! Date and time: Sun Dec  1 17:17:01 2024
! Project name: test_tuning.cst
! Parameters = {airCoaxOuterDiameter=3; chamferAngle=45; chamferWidth=24; connectorLength=10; drillingHoleDiameter=4.1; feedLength=60; flareDiameter=130; flareLength=70; gratingDistance=0; gratingGap=1.90274; outletLength=30; polarizerLength=90; probe1Diameter=1.3; probe1Distance=14; probe1Length=12; probe2Diameter=1.3; probe2Distance=0; probe2Length=12; probeLength=12; smaInnerDiameter=1.3; smaOuterDiameter=4.1; transitionCoefficient=1.33; waveguideFeedLength=30; waveguideSide=50; waveguideThickness=3; wireCount=25; wireDiameter=1.17699}
! Header version: 2024
! Port assignment regex: !\s*Touchstone port\s*([0-9]+)\s*=\s*(CST MWS port|CST DES external port|CST DES block port)\s*(.+)\s* \(\"(.*)\"\)(\s*mode\s*([0-9]+))?.*
! Touchstone port assignment:
! Touchstone port 1 = CST MWS port 1 ("Input1")
! Touchstone port 2 = CST MWS port 2 ("Input2")
# GHz S MA R 50
4.6                    0.2374834       -159.5004         0.615785        69.81868         0.615785        69.81865        0.2374835       -159.5006
4.6014                 0.2446425       -160.5264        0.6177839        68.87708        0.6177839        68.87704        0.2446426       -160.5266
4.6028                 0.2518142       -161.5508        0.6196826        67.92732        0.6196826        67.92727        0.2518143        -161.551
4.6042                 0.2589957       -162.5744        0.6214766         66.9696        0.6214765        66.96955        0.2589957       -162.5746
4.6056                 0.2661841       -163.5975        0.6231611         66.0042         0.623161        66.00415        0.2661841       -163.5977
4.607                  0.2733762       -164.6208         0.624732         65.0314        0.6247319        65.03136        0.2733762        -164.621
4.6084                 0.2805687       -165.6447        0.6261855        64.05154        0.6261854        64.05148        0.2805687       -165.6449
4.6098                 0.2877581       -166.6698         0.627518        63.06491        0.6275179        63.06487        0.2877581       -166.6699
4.6112                 0.2949405       -167.6963        0.6287263        62.07189        0.6287264        62.07184        0.2949404       -167.6965
4.6126                 0.3021116       -168.7248        0.6298079        61.07282        0.6298078        61.07277        0.3021115       -168.7249
4.614                   0.309267       -169.7555        0.6307601        60.06807          0.63076        60.06803        0.3092669       -169.7556
4.6154                 0.3164018       -170.7888        0.6315812        59.05802        0.6315811        59.05799        0.3164018       -170.7889
4.6168                  0.323511        -171.825        0.6322697        58.04302        0.6322696        58.04299        0.3235109       -171.8251
4.6182                 0.3305891       -172.8642        0.6328244        57.02345        0.6328243        57.02341         0.330589       -172.8643
4.6196                 0.3376304       -173.9066        0.6332447        55.99965        0.6332445        55.99962        0.3376303       -173.9067
4.621                  0.3446289       -174.9523        0.6335302        54.97197        0.6335301        54.97194        0.3446288       -174.9524
4.6224                 0.3515783       -176.0014        0.6336812        53.94072         0.633681         53.9407        0.3515782       -176.0015
4.6238                 0.3584723       -177.0538        0.6336977        52.90624        0.6336975        52.90621        0.3584723       -177.0539
4.6252                 0.3653043       -178.1095        0.6335806         51.8688        0.6335804        51.86878        0.3653043       -178.1096
4.6266                 0.3720676       -179.1684        0.6333308        50.82869        0.6333307        50.82866        0.3720676       -179.1684
4.628                  0.3787554        179.7698        0.6329495        49.78614        0.6329492        49.78612        0.3787554        179.7698
4.6294                 0.3853609        178.7052        0.6324377         48.7414        0.6324375        48.74137         0.385361        178.7052
4.6308                 0.3918774        177.6381        0.6317973        47.69465        0.6317971        47.69464        0.3918775        177.6381
4.6322                 0.3982983        176.5688        0.6310296         46.6461        0.6310294        46.64608        0.3982984        176.5688
4.6336                  0.404617        175.4977        0.6301364        45.59589        0.6301361        45.59589        0.4046172        175.4976
4.635                  0.4108272        174.4251        0.6291192        44.54419         0.629119        44.54417        0.4108275         174.425
4.6364                  0.416923        173.3514        0.6279799         43.4911        0.6279797         43.4911        0.4169232        173.3514
4.6378                 0.4228986        172.2771          0.62672        42.43674        0.6267198        42.43673        0.4228988        172.2771
4.6392                 0.4287484        171.2027        0.6253413         41.3812        0.6253411        41.38119        0.4287487        171.2027
4.6406                 0.4344676        170.1286        0.6238452        40.32455         0.623845        40.32455        0.4344679        170.1286
4.642                  0.4400514        169.0553        0.6222332        39.26689        0.6222331        39.26688        0.4400518        169.0553
4.6434                 0.4454958        167.9833        0.6205068        38.20826        0.6205068        38.20825        0.4454962        167.9833
4.6448                  0.450797        166.9131        0.6186674        37.14872        0.6186673        37.14872        0.4507975        166.9131
4.6462                 0.4559518        165.8451        0.6167161        36.08833         0.616716        36.08833        0.4559523        165.8451
4.6476                 0.4609576        164.7799        0.6146541        35.02715         0.614654        35.02715        0.4609581        164.7798
4.649                   0.465812        163.7178        0.6124825        33.96524        0.6124824        33.96524        0.4658125        163.7178
4.6504                 0.4705134        162.6594        0.6102024        32.90268        0.6102023        32.90268        0.4705139        162.6593
4.6518                 0.4750605        161.6049        0.6078148        31.83951        0.6078147        31.83951         0.475061        161.6049
4.6532                 0.4794525        160.5549        0.6053208        30.77584        0.6053207        30.77585        0.4794531        160.5549
4.6546                 0.4836891        159.5097        0.6027211        29.71176        0.6027211        29.71177        0.4836896        159.5097
4.656                  0.4877703        158.4696        0.6000172        28.64737        0.6000171        28.64738        0.4877709        158.4695
4.6574                 0.4916966        157.4348          0.59721        27.58279          0.59721        27.58279        0.4916972        157.4348
4.6588                 0.4954687        156.4057        0.5943009        26.51814        0.5943009        26.51814        0.4954692        156.4057
4.6602                 0.4990877        155.3825        0.5912911        25.45355        0.5912911        25.45356        0.4990883        155.3824
4.6616                 0.5025548        154.3653        0.5881823        24.38919        0.5881823         24.3892        0.5025554        154.3652
4.663                  0.5058716        153.3542        0.5849761        23.32521        0.5849761        23.32521        0.5058721        153.3542
4.6644                 0.5090396        152.3495        0.5816745        22.26177        0.5816746        22.26177        0.5090401        152.3494
4.6658                 0.5120604        151.3511        0.5782795        21.19905        0.5782795        21.19905        0.5120609        151.3511
4.6672                 0.5149358        150.3592        0.5747936        20.13721        0.5747936        20.13721        0.5149362        150.3591
4.6686                 0.5176675        149.3736        0.5712191        19.07643        0.5712192        19.07643        0.5176679        149.3736
4.67                   0.5202571        148.3945        0.5675593        18.01688        0.5675593        18.01687        0.5202575        148.3944
4.6714                 0.5227061        147.4218        0.5638168         16.9587        0.5638169         16.9587        0.5227065        147.4217
4.6728                 0.5250157        146.4554        0.5599952        15.90207        0.5599953        15.90206        0.5250162        146.4553
4.6742                 0.5271873        145.4952        0.5560979         14.8471        0.5560979        14.84709        0.5271879        145.4952
4.6756                  0.529222        144.5413        0.5521285         13.7939        0.5521286         13.7939        0.5292223        144.5413
4.677                  0.5311202        143.5936        0.5480912        12.74257        0.5480913        12.74256        0.5311205        143.5935
4.6784                 0.5328826        142.6519        0.5439898        11.69316          0.54399        11.69315        0.5328828        142.6519
4.6798                 0.5345094        141.7163        0.5398286        10.64569        0.5398287        10.64569        0.5345097        141.7162
4.6812                 0.5360006        140.7866        0.5356117         9.60017        0.5356118         9.60016         0.536001        140.7866
4.6826                 0.5373563         139.863        0.5313433         8.55653        0.5313433         8.55652        0.5373566         139.863
4.684                  0.5385759        138.9454        0.5270277        7.514682        0.5270278        7.514671        0.5385762        138.9453
4.6854                 0.5396592        138.0338        0.5226689        6.474487         0.522669        6.474475        0.5396594        138.0338
4.6868                 0.5406052        137.1283         0.518271        5.435758        0.5182711        5.435745        0.5406055        137.1283
4.6882                 0.5414135        136.2291        0.5138379        4.398256         0.513838        4.398242        0.5414136        136.2291
4.6896                 0.5420833        135.3363         0.509373        3.361696        0.5093731        3.361681        0.5420834        135.3363
4.691                  0.5426138        134.4501        0.5048796        2.325742        0.5048798        2.325726         0.542614        134.4501
4.6924                 0.5430048        133.5708        0.5003608        1.290008        0.5003608         1.28999         0.543005        133.5708
4.6938                 0.5432556        132.6987         0.495819       0.2540603         0.495819       0.2540422        0.5432558        132.6987
4.6952                 0.5433663        131.8342        0.4912564       -0.782576        0.4912564      -0.7825951        0.5433665        131.8342
4.6966                 0.5433369        130.9775        0.4866745        -1.82042        0.4866746        -1.82044        0.5433371        130.9775
4.698                  0.5431681        130.1293        0.4820747       -2.860026        0.4820747       -2.860047        0.5431684        130.1293
4.6994                  0.542861          129.29        0.4774575       -3.901979        0.4774575       -3.902001        0.5428612          129.29
4.7008                 0.5424168          128.46         0.472823       -4.946893        0.4728231       -4.946916        0.5424172        128.4601
4.7022                 0.5418381        127.6401        0.4681708       -5.995389        0.4681709       -5.995416        0.5418384        127.6401
4.7036                 0.5411274        126.8308        0.4634998       -7.048115        0.4634999       -7.048141        0.5411277        126.8308
4.705                  0.5402881        126.0326        0.4588086       -8.105751        0.4588086        -8.10575        0.5402884        126.0326
4.7064                 0.5393244        125.2464         0.454095       -9.168897         0.454095       -9.168924        0.5393249        125.2464
4.7078                 0.5382414        124.4727        0.4493564       -10.23818        0.4493565       -10.23823        0.5382419        124.4727
4.7092                 0.5370448        123.7122          0.44459       -11.31424          0.44459       -11.31427        0.5370452        123.7122
4.7106                 0.5357409        122.9655        0.4397921       -12.39767        0.4397921       -12.39769        0.5357414        122.9655
4.712                  0.5343373        122.2333        0.4349592       -13.48898        0.4349591       -13.48901        0.5343377        122.2333
4.7134                  0.532842        121.5161        0.4300868        -14.5887        0.4300868       -14.58872        0.5328425        121.5161
4.7148                 0.5312638        120.8146        0.4251709       -15.69727        0.4251709       -15.69729        0.5312643        120.8146
4.7162                 0.5296124        120.1293        0.4202068       -16.81508        0.4202067       -16.81511        0.5296129        120.1293
4.7176                 0.5278981        119.4606        0.4151898       -17.94248        0.4151897       -17.94251        0.5278986        119.4606
4.719                  0.5261316        118.8088        0.4101153       -19.07972        0.4101153       -19.07974        0.5261321        118.8089
4.7204                 0.5243243        118.1744        0.4049787       -20.22699        0.4049786       -20.22701        0.5243249        118.1744
4.7218                 0.5224882        117.5574        0.3997754       -21.38438        0.3997753        -21.3844        0.5224888        117.5574
4.7232                 0.5206353        116.9579        0.3945011       -22.55195         0.394501       -22.55197        0.5206358         116.958
4.7246                  0.518778         116.376        0.3891517       -23.72962        0.3891516       -23.72964        0.5187786         116.376
4.726                  0.5169287        115.8115        0.3837235       -24.91726        0.3837234       -24.91727        0.5169292        115.8115
4.7274                    0.5151         115.264        0.3782132       -26.11464        0.3782131       -26.11465        0.5151005         115.264
4.7288                 0.5133038        114.7331        0.3726178       -27.32145        0.3726177       -27.32146        0.5133043        114.7331
4.7302                 0.5115523        114.2183        0.3669351       -28.53728         0.366935        -28.5373        0.5115528        114.2183
4.7316                 0.5098567        113.7188        0.3611631       -29.76167         0.361163       -29.76169        0.5098572        113.7188
4.733                   0.508228        113.2339        0.3553008       -30.99405        0.3553008       -30.99406        0.5082285        113.2339
4.7344                 0.5066761        112.7625        0.3493476       -32.23376        0.3493475       -32.23377        0.5066766        112.7625
4.7358                 0.5052103        112.3034        0.3433035        -33.4801        0.3433035       -33.48011        0.5052108        112.3034
4.7372                 0.5038388        111.8555        0.3371695       -34.73227        0.3371694       -34.73227        0.5038392        111.8554
4.7386                 0.5025686        111.4173        0.3309468       -35.98939        0.3309468       -35.98939         0.502569        111.4173
4.74                   0.5014055        110.9876        0.3246379       -37.25055        0.3246379       -37.25055        0.5014059        110.9876
4.7414                 0.5003542        110.5646        0.3182455       -38.51473        0.3182455       -38.51474        0.5003545        110.5646
4.7428                 0.4994177         110.147        0.3117732        -39.7809        0.3117732        -39.7809        0.4994181         110.147
4.7442                 0.4985982        109.7329        0.3052253       -41.04793        0.3052253       -41.04793        0.4985985        109.7329
4.7456                 0.4978958        109.3209        0.2986067       -42.31467        0.2986067       -42.31467        0.4978961        109.3209
4.747                  0.4973097        108.9092         0.291923        -43.5799         0.291923       -43.57991          0.49731        108.9092
4.7484                 0.4968374        108.4963          0.28518        -44.8424        0.2851801        -44.8424        0.4968378        108.4963
4.7498                 0.4964755        108.0806        0.2783847       -46.10085        0.2783848       -46.10086        0.4964758        108.0806
4.7512                 0.4962189        107.6606        0.2715441       -47.35396        0.2715441       -47.35396        0.4962192        107.6606
4.7526                 0.4960615        107.2349        0.2646656       -48.60037        0.2646657       -48.60037        0.4960618        107.2349
4.754                  0.4959962         106.802        0.2577574       -49.83872        0.2577575       -49.83872        0.4959965        106.8021
4.7554                 0.4960148         106.361        0.2508277       -51.06762        0.2508278       -51.06764        0.4960151         106.361
4.7568                 0.4961084        105.9105        0.2438852       -52.28569        0.2438852        -52.2857        0.4961086        105.9105
4.7582                 0.4962671        105.4497        0.2369384       -53.49152        0.2369385       -53.49153        0.4962673        105.4498
4.7596                 0.4964808        104.9778        0.2299964       -54.68373        0.2299965       -54.68374        0.4964811        104.9778
4.761                  0.4967388         104.494        0.2230683       -55.86091        0.2230683       -55.86092        0.4967391         104.494
4.7624                 0.4970302        103.9978        0.2161629       -57.02171         0.216163       -57.02172        0.4970304        103.9978
4.7638                 0.4973436        103.4887        0.2092893       -58.16477        0.2092894       -58.16479        0.4973439        103.4888
4.7652                  0.497668        102.9666        0.2024564       -59.28879        0.2024565        -59.2888        0.4976683        102.9666
4.7666                 0.4979923        102.4313        0.1956728       -60.39247        0.1956729        -60.3925        0.4979926        102.4313
4.768                  0.4983056        101.8826        0.1889469       -61.47459         0.188947       -61.47461        0.4983059        101.8827
4.7694                 0.4985974        101.3209        0.1822868         -62.534        0.1822869       -62.53404        0.4985978        101.3209
4.7708                 0.4988576        100.7462        0.1757003       -63.56959        0.1757004       -63.56963        0.4988579        100.7462
4.7722                 0.4990765        100.1589        0.1691947       -64.58035        0.1691948       -64.58039        0.4990769        100.1589
4.7736                 0.4992452         99.5593        0.1627769       -65.56534        0.1627769       -65.56539        0.4992455        99.55933
4.775                  0.4993552        98.94796        0.1564531       -66.52374        0.1564532       -66.52379        0.4993556        98.94799
4.7764                 0.4993989        98.32539        0.1502291       -67.45484        0.1502292       -67.45489        0.4993993        98.32542
4.7778                 0.4993694        97.69223        0.1441101         -68.358        0.1441101       -68.35806        0.4993698        97.69225
4.7792                 0.4992604        97.04906        0.1381004        -69.2328        0.1381005       -69.23286        0.4992608        97.04909
4.7806                 0.4990665        96.39659         0.132204       -70.07889         0.132204       -70.07895        0.4990669        96.39665
4.782                  0.4987833        95.73557        0.1264238       -70.89607        0.1264238       -70.89614        0.4987837         95.7356
4.7834                 0.4984068        95.06667        0.1207624        -71.6843        0.1207624       -71.68437        0.4984072         95.0667
4.7848                 0.4979339        94.39065        0.1152213       -72.44367        0.1152213       -72.44376        0.4979342        94.39065
4.7862                 0.4973624         93.7082        0.1098016       -73.17445        0.1098016       -73.17453        0.4973627        93.70823
4.7876                 0.4966907        93.02011        0.1045035       -73.87702        0.1045035        -73.8771         0.496691        93.02014
4.789                  0.4959179        92.32703       0.09932652        -74.5519       0.09932649         -74.552        0.4959182        92.32706
4.7904                 0.4950438        91.62972       0.09426964       -75.19975       0.09426961       -75.19983        0.4950442        91.62975
4.7918                 0.4940688        90.92878       0.08933113       -75.82128        0.0893311       -75.82136        0.4940691        90.92881
4.7932                 0.4929938        90.22488        0.0845087        -76.4173       0.08450864       -76.41739        0.4929941        90.22491
4.7946                 0.4918201        89.51864        0.0797995       -76.98869       0.07979944       -76.98877        0.4918204        89.51867
4.796                  0.4905497         88.8106       0.07520026       -77.53627       0.07520019       -77.53636          0.49055        88.81063
4.7974                  0.489185        88.10129       0.07070722       -78.06085       0.07070715       -78.06093        0.4891852        88.10129
4.7988                 0.4877283        87.39117       0.06631636       -78.56309       0.06631628       -78.56317        0.4877286        87.39119
4.8002                 0.4861827        86.68068       0.06202333       -79.04346       0.06202326       -79.04353        0.4861829        86.68068
4.8016                 0.4845514        85.97024       0.05782361       -79.50211       0.05782353       -79.50218        0.4845516        85.97026
4.803                  0.4828374        85.26018       0.05371254       -79.93874       0.05371246        -79.9388        0.4828376         85.2602
4.8044                 0.4810444         84.5508       0.04968539       -80.35244       0.04968531       -80.35251        0.4810445        84.55081
4.8058                 0.4791756        83.84236       0.04573747       -80.74137        0.0457374       -80.74142        0.4791758        83.84238
4.8072                 0.4772348        83.13506       0.04186416       -81.10244        0.0418641       -81.10249         0.477235        83.13509
4.8086                 0.4752253        82.42909       0.03806102       -81.43068       0.03806095       -81.43074        0.4752255        82.42912
4.81                   0.4731506        81.72461       0.03432377       -81.71846       0.03432372       -81.71849        0.4731507        81.72462
4.8114                 0.4710141        81.02166       0.03064849       -81.95382       0.03064844       -81.95385        0.4710143        81.02168
4.8128                  0.468819        80.32035       0.02703153       -82.11812       0.02703149       -82.11813        0.4688191        80.32036
4.8142                 0.4665685         79.6207       0.02346975       -82.18101       0.02346972       -82.18104        0.4665686        79.62072
4.8156                 0.4642655         78.9227       0.01996055        -82.0911       0.01996054       -82.09112        0.4642656        78.92273
4.817                  0.4619127        78.22634       0.01650224       -81.75463       0.01650223       -81.75465        0.4619129        78.22638
4.8184                 0.4595129         77.5316       0.01309464       -80.98272       0.01309465       -80.98278         0.459513        77.53164
4.8198                 0.4570685        76.83841      0.009741167       -79.33302      0.009741177       -79.33311        0.4570687        76.83843
4.8212                 0.4545818        76.14665      0.006456861       -75.48416      0.006456876       -75.48436        0.4545819        76.14669
4.8226                 0.4520547        75.45629      0.003322661       -63.20411      0.003322675        -63.2047        0.4520548        75.45632
4.824                  0.4494893        74.76722      0.001468636         11.0778      0.001468598        11.07672        0.4494894        74.76726
4.8254                 0.4468872        74.07931      0.003781782         67.4847       0.00378173        67.48503        0.4468872        74.07935
4.8268                   0.44425        73.39245       0.00683866        77.17376      0.006838607        77.17407        0.4442501        73.39249
4.8282                 0.4415791        72.70656      0.009943327         80.4439      0.009943274         80.4442        0.4415792        72.70659
4.8296                 0.4388758        72.02148       0.01303628        81.86266       0.01303622        81.86293        0.4388759        72.02152
4.831                  0.4361413        71.33714       0.01610408        82.50397       0.01610402        82.50425        0.4361414        71.33717
4.8324                 0.4333767        70.65336       0.01914212        82.74694       0.01914207         82.7472        0.4333767        70.65341
4.8338                 0.4305828        69.97009       0.02214846        82.75913       0.02214841        82.75939        0.4305829        69.97015
4.8352                 0.4277606        69.28721       0.02512217         82.6262       0.02512213        82.62645        0.4277607        69.28725
4.8366                 0.4249109        68.60458       0.02806281        82.39656       0.02806277        82.39679        0.4249111        68.60461
4.838                  0.4220345         67.9221       0.03097022        82.09981       0.03097019        82.10004        0.4220346        67.92213
4.8394                 0.4191321        67.23967       0.03384445        81.75511       0.03384443        81.75535        0.4191322        67.23972
4.8408                 0.4162042        66.55719       0.03668571        81.37553       0.03668571        81.37575        0.4162043        66.55724
4.8422                 0.4132517        65.87456       0.03949441        80.97023       0.03949441        80.97045        0.4132518        65.87461
4.8436                  0.410275        65.19167       0.04227107        80.54591       0.04227109        80.54613        0.4102751         65.1917
4.845                  0.4072749        64.50842       0.04501643        80.10758       0.04501646        80.10779         0.407275        64.50846
4.8464                 0.4042517        63.82471       0.04773135        79.65897       0.04773139        79.65916        0.4042518        63.82474
4.8478                 0.4012062        63.14041       0.05041687        79.20297       0.05041693        79.20314        0.4012063        63.14045
4.8492                 0.3981389        62.45544       0.05307419        78.74178       0.05307426        78.74195         0.398139        62.45547
4.8506                 0.3950502        61.76966       0.05570462        78.27708        0.0557047        78.27725        0.3950503         61.7697
4.852                  0.3919407        61.08296       0.05830964        77.81013       0.05830974        77.81027        0.3919407        61.08299
4.8534                 0.3888108        60.39521       0.06089085        77.34181       0.06089095        77.34195        0.3888108        60.39525
4.8548                 0.3856609         59.7063        0.0634499        76.87276       0.06345001        76.87289        0.3856609        59.70634
4.8562                 0.3824915        59.01606       0.06598855        76.40335       0.06598868        76.40346        0.3824915         59.0161
4.8576                 0.3793028        58.32437       0.06850861        75.93374       0.06850875        75.93384        0.3793028         58.3244
4.859                  0.3760952        57.63106       0.07101188        75.46394       0.07101204        75.46402        0.3760951         57.6311
4.8604                 0.3728688        56.93601       0.07350023        74.99375       0.07350039        74.99383        0.3728688        56.93603
4.8618                 0.3696241        56.23902       0.07597544        74.52295       0.07597561          74.523         0.369624        56.23905
4.8632                 0.3663609        55.53993       0.07843926        74.05111       0.07843942        74.05115        0.3663608        55.53997
4.8646                 0.3630794        54.83858       0.08089334         73.5778       0.08089352        73.57781        0.3630793        54.83862
4.866                  0.3597797         54.1348       0.08333928        73.10247       0.08333945        73.10249        0.3597796        54.13483
4.8674                 0.3564616         53.4284       0.08577853        72.62459       0.08577869        72.62459        0.3564615        53.42844
4.8688                 0.3531251        52.71919       0.08821238        72.14354       0.08821255        72.14354         0.353125        52.71923
4.8702                   0.34977        52.00701       0.09064204        71.65876       0.09064222        71.65875        0.3497699        52.00705
4.8716                 0.3463961        51.29166       0.09306851        71.16964       0.09306866        71.16962        0.3463959        51.29171