! TOUCHSTONE file generated by CST MICROWAVE STUDIO
! Date and time: Sun Dec  1 17:17:06 2024
! Project name: test_tuning.cst
! Parameters = {airCoaxOuterDiameter=3; chamferAngle=45; chamferWidth=24; connectorLength=10; drillingHoleDiameter=4.1; feedLength=60; flareDiameter=130; flareLength=70; gratingDistance=0; gratingGap=1.90274; outletLength=30; polarizerLength=122; probe1Diameter=1.3; probe1Distance=14; probe1Length=12; probe2Diameter=1.3; probe2Distance=0; probe2Length=12; probeLength=12; smaInnerDiameter=1.3; smaOuterDiameter=4.1; transitionCoefficient=1.33; waveguideFeedLength=30; waveguideSide=50; waveguideThickness=3; wireCount=25; wireDiameter=1.17699}
! Header version: 2024
! Port assignment regex: !\s*Touchstone port\s*([0-9]+)\s*=\s*(CST MWS port|CST DES external port|CST DES block port)\s*(.+)\s* \(\"(.*)\"\)(\s*mode\s*([0-9]+))?.*
! Touchstone port assignment:
! Touchstone port 1 = CST MWS port 1 ("Input1")
! Touchstone port 2 = CST MWS port 2 ("Input2")
# GHz S MA R 50
4.6                    0.2164631       -150.4483        0.6031967        60.96306        0.6031961         60.9632        0.2164627       -150.4489
4.6014                 0.2226701       -151.5154        0.6040579        60.16341        0.6040575        60.16353        0.2226698       -151.5159
4.6028                 0.2289583       -152.5708        0.6049465        59.35453         0.604946        59.35466         0.228958       -152.5713
4.6042                 0.2353237       -153.6174        0.6058564        58.53534         0.605856        58.53548        0.2353234       -153.6179
4.6056                 0.2417616       -154.6577        0.6067806        57.70478        0.6067802        57.70491        0.2417614       -154.6582
4.607                  0.2482665       -155.6939        0.6077104        56.86186        0.6077101        56.86199        0.2482662       -155.6944
4.6084                 0.2548317       -156.7277        0.6086355        56.00571        0.6086353        56.00584        0.2548315       -156.7281
4.6098                 0.2614502       -157.7605        0.6095445        55.13556        0.6095444        55.13569          0.26145       -157.7609
4.6112                 0.2681142       -158.7935        0.6104251        54.25075        0.6104249        54.25088         0.268114       -158.7939
4.6126                 0.2748155       -159.8276        0.6112637        53.35075        0.6112636        53.35087        0.2748152        -159.828
4.614                  0.2815454       -160.8632        0.6120462        52.43517        0.6120462        52.43529        0.2815452       -160.8636
4.6154                 0.2882953       -161.9008        0.6127582        51.50375        0.6127582        51.50388        0.2882951       -161.9011
4.6168                 0.2950564       -162.9404        0.6133844        50.55641        0.6133845        50.55653        0.2950562       -162.9407
4.6182                 0.3018201        -163.982        0.6139097        49.59317        0.6139099        49.59329        0.3018199       -163.9823
4.6196                 0.3085779       -165.0253        0.6143193        48.61422        0.6143196        48.61434        0.3085777       -165.0256
4.621                  0.3153218         -166.07        0.6145983        47.61988        0.6145985           47.62        0.3153216       -166.0703
4.6224                 0.3220442       -167.1156        0.6147322         46.6106        0.6147326        46.61071         0.322044       -167.1159
4.6238                 0.3287382       -168.1616        0.6147075        45.58694        0.6147079        45.58705         0.328738       -168.1619
4.6252                 0.3353976       -169.2073        0.6145114         44.5496        0.6145117         44.5497        0.3353974       -169.2076
4.6266                 0.3420169       -170.2521        0.6141316        43.49937        0.6141321        43.49946        0.3420167       -170.2524
4.628                  0.3485914       -171.2954        0.6135574        42.43714        0.6135579        42.43723        0.3485912       -171.2956
4.6294                 0.3551174       -172.3365        0.6127789        41.36389        0.6127794        41.36398        0.3551172       -172.3367
4.6308                 0.3615921       -173.3749        0.6117877        40.28069        0.6117884        40.28077        0.3615919       -173.3751
4.6322                 0.3680134         -174.41        0.6105767        39.18863        0.6105774        39.18871        0.3680132       -174.4101
4.6336                 0.3743802       -175.4412        0.6091401         38.0889        0.6091407        38.08898        0.3743799       -175.4414
4.635                  0.3806923       -176.4684        0.6074735        36.98272        0.6074742        36.98279         0.380692       -176.4685
4.6364                   0.38695        -177.491        0.6055742        35.87133         0.605575        35.87138        0.3869497       -177.4912
4.6378                 0.3931547        -178.509        0.6034408        34.75599        0.6034415        34.75604        0.3931544       -178.5091
4.6392                 0.3993081       -179.5221        0.6010733        33.63799         0.601074        33.63804        0.3993078       -179.5223
4.6406                 0.4054124        179.4695        0.5984732        32.51862        0.5984739        32.51866        0.4054121        179.4694
4.642                  0.4114704        178.4658        0.5956434        31.39914        0.5956442        31.39918        0.4114702        178.4657
4.6434                  0.417485        177.4665        0.5925883        30.28083         0.592589        30.28085        0.4174848        177.4664
4.6448                 0.4234592        176.4713        0.5893131         29.1649        0.5893138        29.16492        0.4234589        176.4712
4.6462                 0.4293958        175.4797        0.5858247        28.05257        0.5858253        28.05258        0.4293956        175.4796
4.6476                 0.4352979        174.4913        0.5821306        26.94498        0.5821313        26.94499        0.4352976        174.4912
4.649                  0.4411676        173.5053        0.5782399        25.84325        0.5782405        25.84326        0.4411675        173.5052
4.6504                 0.4470072        172.5211        0.5741618        24.74844        0.5741625        24.74844        0.4470071         172.521
4.6518                  0.452818        171.5379        0.5699071        23.66153        0.5699076        23.66152        0.4528178        171.5379
4.6532                 0.4586007         170.555        0.5654865        22.58344         0.565487        22.58343        0.4586006        170.5549
4.6546                 0.4643551        169.5714        0.5609118        21.51503        0.5609122        21.51501         0.464355        169.5714
4.656                  0.4700801        168.5863        0.5561947        20.45706        0.5561951        20.45704        0.4700801        168.5863
4.6574                 0.4757738        167.5989        0.5513475        19.41022        0.5513479         19.4102        0.4757738        167.5989
4.6588                 0.4814329        166.6084        0.5463827        18.37513         0.546383         18.3751         0.481433        166.6083
4.6602                 0.4870534        165.6138        0.5413125        17.35229        0.5413128        17.35226        0.4870536        165.6138
4.6616                   0.49263        164.6145        0.5361492        16.34214        0.5361494        16.34212        0.4926301        164.6145
4.663                  0.4981563        163.6098        0.5309049        15.34504         0.530905        15.34501        0.4981564        163.6098
4.6644                 0.5036247         162.599        0.5255912        14.36123        0.5255914         14.3612         0.503625         162.599
4.6658                 0.5090271        161.5816        0.5202196         13.3909        0.5202197        13.39086        0.5090274        161.5816
4.6672                  0.514354        160.5572        0.5148009        12.43414        0.5148009         12.4341        0.5143543        160.5572
4.6686                 0.5195953        159.5255        0.5093452        11.49097        0.5093453        11.49093        0.5195956        159.5255
4.67                     0.52474        158.4862        0.5038623        10.56134        0.5038623        10.56131        0.5247404        158.4862
4.6714                 0.5297766        157.4391        0.4983611        9.645142        0.4983611        9.645109        0.5297771        157.4392
4.6728                 0.5346933        156.3845        0.4928498        8.742199        0.4928497        8.742168        0.5346938        156.3845
4.6742                 0.5394776        155.3223         0.487336        7.852289        0.4873359         7.85226        0.5394781        155.3223
4.6756                 0.5441171        154.2529        0.4818263        6.975151        0.4818262        6.975122        0.5441177        154.2529
4.677                  0.5485993        153.1765        0.4763269        6.110483        0.4763267        6.110457        0.5485999        153.1765
4.6784                 0.5529118        152.0937         0.470843        5.257964        0.4708428         5.25794        0.5529124        152.0937
4.6798                 0.5570426        151.0051        0.4653792        4.417254        0.4653791        4.417233        0.5570432        151.0051
4.6812                   0.56098        149.9113        0.4599397        3.588005        0.4599396        3.587985        0.5609807        149.9113
4.6826                 0.5647133        148.8132        0.4545278        2.769866        0.4545275         2.76985         0.564714        148.8132
4.684                   0.568232        147.7117        0.4491462        1.962496         0.449146        1.962482        0.5682327        147.7117
4.6854                 0.5715268        146.6076        0.4437975        1.165564        0.4437972        1.165552        0.5715276        146.6076
4.6868                 0.5745897        145.5021        0.4384835       0.3787573        0.4384832       0.3787483        0.5745904        145.5021
4.6882                 0.5774134        144.3961        0.4332059      -0.3982139        0.4332057      -0.3982202        0.5774142        144.3961
4.6896                 0.5799921        143.2909         0.427966       -1.165615        0.4279658       -1.165619        0.5799929        143.2909
4.691                  0.5823214        142.1877        0.4227651       -1.923683        0.4227649       -1.923685        0.5823221        142.1877
4.6924                 0.5843981        141.0876         0.417604       -2.672631        0.4176038       -2.672631        0.5843988        141.0876
4.6938                 0.5862207        139.9919        0.4124838       -3.412643        0.4124836       -3.412641        0.5862213        139.9919
4.6952                 0.5877892        138.9018        0.4074052        -4.14388         0.407405       -4.143877        0.5877898        138.9018
4.6966                 0.5891051        137.8185        0.4023691       -4.866483         0.402369        -4.86648        0.5891057        137.8185
4.698                  0.5901715        136.7433        0.3973765       -5.580578        0.3973763       -5.580574        0.5901722        136.7433
4.6994                 0.5909932        135.6773        0.3924284       -6.286279        0.3924283       -6.286274        0.5909938        135.6773
4.7008                 0.5915763        134.6217        0.3875258       -6.983716        0.3875257       -6.983689        0.5915768        134.6217
4.7022                 0.5919282        133.5776        0.3826699       -7.672972        0.3826697       -7.672972        0.5919289        133.5776
4.7036                 0.5920583        132.5459        0.3778618       -8.354178        0.3778617       -8.354178         0.592059        132.5459
4.705                  0.5919769        131.5277         0.373103       -9.027508        0.3731028       -9.027508        0.5919776        131.5277
4.7064                 0.5916954        130.5237        0.3683947       -9.693098        0.3683946       -9.693069         0.591696        130.5238
4.7078                 0.5912265        129.5348        0.3637384       -10.35116        0.3637383       -10.35113        0.5912271        129.5349
4.7092                 0.5905836        128.5616        0.3591353       -11.00196        0.3591352       -11.00196        0.5905842        128.5617
4.7106                 0.5897809        127.6046        0.3545867       -11.64579        0.3545866       -11.64579        0.5897816        127.6046
4.712                  0.5888336        126.6642        0.3500939       -12.28297        0.3500938       -12.28297        0.5888342        126.6642
4.7134                 0.5877565        125.7406        0.3456576       -12.91391        0.3456575       -12.91392        0.5877572        125.7406
4.7148                 0.5865652         124.834        0.3412788       -13.53906        0.3412787       -13.53907         0.586566         124.834
4.7162                 0.5852751        123.9443        0.3369579       -14.15891        0.3369578       -14.15892        0.5852759        123.9443
4.7176                 0.5839012        123.0713         0.332695       -14.77403        0.3326949       -14.77404        0.5839021        123.0714
4.719                  0.5824584        122.2148          0.32849       -15.38502        0.3284899       -15.38502        0.5824593        122.2149
4.7204                 0.5809608        121.3743        0.3243423       -15.99251        0.3243421       -15.99252        0.5809617        121.3744
4.7218                 0.5794216        120.5492        0.3202508       -16.59719        0.3202506        -16.5972        0.5794226        120.5492
4.7232                 0.5778532        119.7386        0.3162141       -17.19975        0.3162139       -17.19976        0.5778542        119.7387
4.7246                 0.5762667        118.9419        0.3122304       -17.80091        0.3122302       -17.80092        0.5762678         118.942
4.726                  0.5746721         118.158        0.3082972       -18.40138        0.3082969       -18.40139        0.5746732        118.1581
4.7274                 0.5730778         117.386        0.3044118       -19.00185        0.3044115       -19.00186        0.5730789        117.3861
4.7288                 0.5714907        116.6246        0.3005709       -19.60299        0.3005707         -19.603         0.571492        116.6247
4.7302                 0.5699165        115.8728        0.2967712       -20.20541         0.296771       -20.20543        0.5699178        115.8729
4.7316                 0.5683587        115.1293        0.2930087       -20.80969        0.2930084        -20.8097        0.5683601        115.1294
4.733                  0.5668198        114.3931        0.2892794       -21.41631        0.2892791       -21.41632        0.5668213        114.3932
4.7344                 0.5653005        113.6628        0.2855788       -22.02567        0.2855786       -22.02567         0.565302        113.6628
4.7358                 0.5637999        112.9373        0.2819028       -22.63808        0.2819025       -22.63808        0.5638014        112.9374
4.7372                 0.5623159        112.2155        0.2782467       -23.25372        0.2782464       -23.25372        0.5623175        112.2156
4.7386                  0.560845        111.4965        0.2746063       -23.87268         0.274606       -23.87267        0.5608467        111.4966
4.74                   0.5593828        110.7792        0.2709773        -24.4949         0.270977       -24.49488        0.5593845        110.7793
4.7414                 0.5579235        110.0629        0.2673556        -25.1202        0.2673554       -25.12019        0.5579252        110.0629
4.7428                 0.5564608        109.3468        0.2637376       -25.74827        0.2637374       -25.74826        0.5564626        109.3468
4.7442                 0.5549878        108.6303        0.2601199       -26.37868        0.2601196       -26.37865        0.5549896        108.6303
4.7456                  0.553497        107.9129        0.2564996       -27.01084        0.2564993       -27.01081        0.5534988         107.913
4.747                   0.551981        107.1944        0.2528743       -27.64405         0.252874       -27.64402        0.5519828        107.1945
4.7484                  0.550432        106.4746        0.2492423       -28.27752         0.249242       -28.27749        0.5504339        106.4746
4.7498                 0.5488427        105.7534        0.2456023       -28.91032         0.245602       -28.91029        0.5488445        105.7534
4.7512                  0.547206        105.0308        0.2419538       -29.54145        0.2419536       -29.54141        0.5472078        105.0308
4.7526                 0.5455155        104.3071         0.238297       -30.16982        0.2382968       -30.16977        0.5455173        104.3071
4.754                  0.5437654        103.5826        0.2346327       -30.79428        0.2346325       -30.79423        0.5437671        103.5826
4.7554                 0.5419507        102.8578        0.2309625       -31.41366        0.2309623       -31.41361        0.5419522        102.8577
4.7568                 0.5400673         102.133        0.2272884       -32.02674        0.2272882        -32.0267        0.5400689        102.1329
4.7582                 0.5381125        101.4088        0.2236133       -32.63235        0.2236131        -32.6323        0.5381141        101.4088
4.7596                 0.5360846         100.686        0.2199406       -33.22931        0.2199404       -33.22925        0.5360861         100.686
4.761                  0.5339827        99.96516        0.2162742        -33.8165        0.2162741       -33.81645        0.5339842        99.96513
4.7624                 0.5318076        99.24698        0.2126186       -34.39291        0.2126185       -34.39286         0.531809        99.24692
4.7638                 0.5295611        98.53215        0.2089784       -34.95763        0.2089783       -34.95758        0.5295623        98.53206
4.7652                  0.527246         97.8213        0.2053588       -35.50988        0.2053587       -35.50982        0.5272472        97.82121
4.7666                 0.5248664        97.11505        0.2017649       -36.04905        0.2017649       -36.04899        0.5248674        97.11499
4.768                  0.5224272        96.41407        0.1982021       -36.57474        0.1982021       -36.57467        0.5224282        96.41398
4.7694                 0.5199346        95.71876        0.1946756       -37.08673        0.1946756       -37.08667        0.5199355         95.7187
4.7708                 0.5173952        95.02961        0.1911905       -37.58508        0.1911905       -37.58502        0.5173959        95.02952
4.7722                 0.5148162        94.34688        0.1877516       -38.07006        0.1877516       -38.07001        0.5148168         94.3468
4.7736                 0.5122056         93.6708        0.1843633       -38.54225        0.1843633        -38.5422        0.5122062        93.67072
4.775                  0.5095716        93.00141        0.1810295       -39.00246        0.1810295        -39.0024        0.5095721        93.00135
4.7764                 0.5069223        92.33867        0.1777534        -39.4518        0.1777533       -39.45174        0.5069226        92.33858
4.7778                 0.5042658        91.68234        0.1745375       -39.89162        0.1745374       -39.89157        0.5042662        91.68223
4.7792                 0.5016102        91.03208        0.1713835       -40.32355        0.1713835       -40.32351        0.5016105        91.03202
4.7806                 0.4989628        90.38741        0.1682924       -40.74944        0.1682924       -40.74939        0.4989629        90.38736
4.782                  0.4963303        89.74769        0.1652641       -41.17129        0.1652641       -41.17125        0.4963304        89.74766
4.7834                  0.493719        89.11217        0.1622975       -41.59134        0.1622975        -41.5913         0.493719        89.11211
4.7848                 0.4911337        88.47992        0.1593908       -42.01188        0.1593908       -42.01185        0.4911337        88.47989
4.7862                 0.4885785        87.85002        0.1565412       -42.43533        0.1565411       -42.43529        0.4885785        87.85002
4.7876                 0.4860562        87.22136        0.1537448       -42.86406        0.1537448       -42.86402        0.4860561        87.22133
4.789                  0.4835682        86.59276        0.1509972       -43.30046        0.1509972       -43.30042        0.4835681        86.59276
4.7904                 0.4811147        85.96309        0.1482932       -43.74681        0.1482932       -43.74678        0.4811146        85.96309
4.7918                 0.4786945        85.33104         0.145627       -44.20525         0.145627       -44.20521        0.4786944        85.33104
4.7932                 0.4763051        84.69542        0.1429922       -44.67771        0.1429921       -44.67767         0.476305        84.69548
4.7946                 0.4739426        84.05504        0.1403821        -45.1659        0.1403821       -45.16586        0.4739425        84.05507
4.796                  0.4716019        83.40873        0.1377899       -45.67125        0.1377898       -45.67122        0.4716019        83.40876
4.7974                 0.4692768        82.75538        0.1352085       -46.19489        0.1352084       -46.19484        0.4692767        82.75542
4.7988                 0.4669599        82.09397        0.1326311       -46.73756         0.132631       -46.73751        0.4669599        82.09404
4.8002                 0.4646432        81.42361         0.130051       -47.29968        0.1300509       -47.29963        0.4646432        81.42368
4.8016                 0.4623175        80.74351        0.1274619       -47.88128        0.1274618       -47.88121        0.4623176         80.7436
4.803                  0.4599736        80.05307        0.1248579         -48.482        0.1248578       -48.48193        0.4599737        80.05316
4.8044                 0.4576015        79.35177        0.1222337       -49.10111        0.1222336       -49.10105        0.4576017        79.35185
4.8058                 0.4551913        78.63923        0.1195847       -49.73751        0.1195847       -49.73744        0.4551915        78.63933
4.8072                 0.4527329        77.91534        0.1169073       -50.38971        0.1169072       -50.38963        0.4527332        77.91544
4.8086                 0.4502167        77.18003        0.1141983       -51.05587        0.1141983       -51.05577        0.4502171        77.18012
4.81                   0.4476331        76.43345        0.1114559       -51.73382        0.1114558       -51.73373        0.4476336        76.43354
4.8114                 0.4449735        75.67587        0.1086788        -52.4211        0.1086787         -52.421         0.444974        75.67598
4.8128                 0.4422298        74.90774        0.1058668       -53.11494        0.1058668       -53.11483        0.4422304        74.90783
4.8142                 0.4393948         74.1296        0.1030209       -53.81232        0.1030208       -53.81221        0.4393955        74.12968
4.8156                 0.4364625        73.34209        0.1001426       -54.51001        0.1001426       -54.50988        0.4364632        73.34219
4.817                  0.4334277        72.54603       0.09723467       -55.20458       0.09723465       -55.20445        0.4334285        72.54611
4.8184                 0.4302867        71.74223       0.09430054       -55.89246       0.09430051       -55.89234        0.4302875        71.74231
4.8198                 0.4270368        70.93163       0.09134443       -56.57001       0.09134443       -56.56987        0.4270377        70.93169
4.8212                  0.423677        70.11514       0.08837133       -57.23351       0.08837135       -57.23336        0.4236779        70.11522
4.8226                 0.4202071        69.29379        0.0853868       -57.87927       0.08538682       -57.87914        0.4202081        69.29384
4.824                  0.4166286        68.46848       0.08239686       -58.50373       0.08239689       -58.50358        0.4166295        68.46853
4.8254                 0.4129439        67.64016       0.07940795       -59.10344         0.079408       -59.10328        0.4129448        67.64021
4.8268                 0.4091565        66.80972       0.07642669       -59.67522       0.07642674       -59.67507        0.4091576        66.80974
4.8282                 0.4052715        65.97794       0.07345977        -60.2163       0.07345986       -60.21613        0.4052725        65.97796
4.8296                 0.4012944        65.14552       0.07051386       -60.72429       0.07051395       -60.72412        0.4012953        65.14553
4.831                  0.3972314        64.31301       0.06759529       -61.19744       0.06759537       -61.19728        0.3972324        64.31301
4.8324                 0.3930897        63.48084       0.06470998       -61.63473       0.06471007       -61.63457        0.3930907        63.48082
4.8338                 0.3888768        62.64922       0.06186323       -62.03598       0.06186334       -62.03582        0.3888777        62.64921
4.8352                    0.3846        61.81824       0.05905957         -62.402       0.05905968       -62.40185         0.384601        61.81821
4.8366                 0.3802673        60.98773       0.05630253       -62.73478       0.05630265       -62.73462         0.380268        60.98769
4.838                  0.3758857        60.15729       0.05359454       -63.03753       0.05359466       -63.03738        0.3758865        60.15724
4.8394                 0.3714625        59.32633       0.05093672       -63.31491       0.05093686       -63.31475        0.3714632        59.32627
4.8408                 0.3670036          58.494       0.04832882       -63.57306       0.04832896        -63.5729        0.3670043        58.49393
4.8422                 0.3625147         57.6592       0.04576913       -63.81972       0.04576927       -63.81957        0.3625153        57.65913
4.8436                 0.3579999        56.82062       0.04325439       -64.06431       0.04325454       -64.06417        0.3580005        56.82053
4.845                  0.3534623         55.9767       0.04077986       -64.31801          0.04078       -64.31787        0.3534628        55.97661
4.8464                 0.3489035        55.12569        0.0383393       -64.59387       0.03833945       -64.59374        0.3489039        55.12558
4.8478                 0.3443234         54.2656       0.03592514       -64.90693       0.03592528       -64.90682        0.3443237        54.26549
4.8492                 0.3397204         53.3943        0.0335286       -65.27457       0.03352875       -65.27444        0.3397206        53.39419
4.8506                 0.3350909        52.50951       0.03113993       -65.71697       0.03114007       -65.71685        0.3350911         52.5094
4.852                  0.3304299        51.60884       0.02874863       -66.25815       0.02874876       -66.25804        0.3304299        51.60872
4.8534                 0.3257302        50.68976        0.0263438       -66.92769       0.02634393       -66.92758        0.3257301        50.68965
4.8548                  0.320983        49.74978       0.02391449       -67.76379       0.02391461       -67.76366        0.3209829        49.74966
4.8562                  0.316178         48.7863       0.02145011       -68.81899       0.02145023       -68.81888        0.3161778        48.78618
4.8576                  0.311303        47.79682       0.01894103       -70.17125       0.01894115       -70.17112        0.3113028        47.79669
4.859                  0.3063448        46.77882       0.01637939       -71.94607       0.01637951       -71.94591        0.3063444        46.77871
4.8604                 0.3012885        45.72994       0.01376063       -74.36661       0.01376074       -74.36642        0.3012881        45.72982
4.8618                 0.2961186        44.64785       0.01108698        -77.8791       0.01108709       -77.87883        0.2961182        44.64773
4.8632                 0.2908186         43.5304      0.008377651       -83.52525      0.008377753       -83.52484        0.2908181        43.53029
4.8646                 0.2853715        42.37559      0.005708398       -94.32012      0.005708488       -94.31935        0.2853708        42.37549
4.866                  0.2797598        41.18158      0.003431521       -121.2902      0.003431566       -121.2884        0.2797592        41.18148
4.8674                 0.2739664        39.94666      0.003096133       -179.3488      0.003096067        -179.347        0.2739656        39.94658
4.8688                 0.2679739        38.66936      0.005290784        145.3626      0.005290675        145.3631        0.2679731        38.66928
4.8702                 0.2617658        37.34832       0.00831062        131.7505      0.008310503        131.7506         0.261765        37.34825
4.8716                 0.2553261        35.98236       0.01161585        124.7284       0.01161573        124.7284        0.2553252         35.9823