! TOUCHSTONE file generated by CST MICROWAVE STUDIO
! Date and time: Sun Dec  1 17:17:04 2024
! Project name: test_tuning.cst
! Parameters = {airCoaxOuterDiameter=3; chamferAngle=45; chamferWidth=24; connectorLength=10; drillingHoleDiameter=4.1; feedLength=60; flareDiameter=130; flareLength=70; gratingDistance=0; gratingGap=1.90274; outletLength=30; polarizerLength=110; probe1Diameter=1.3; probe1Distance=14; probe1Length=12; probe2Diameter=1.3; probe2Distance=0; probe2Length=12; probeLength=12; smaInnerDiameter=1.3; smaOuterDiameter=4.1; transitionCoefficient=1.33; waveguideFeedLength=30; waveguideSide=50; waveguideThickness=3; wireCount=25; wireDiameter=1.17699}
! Header version: 2024
! Port assignment regex: !\s*Touchstone port\s*([0-9]+)\s*=\s*(CST MWS port|CST DES external port|CST DES block port)\s*(.+)\s* \(\"(.*)\"\)(\s*mode\s*([0-9]+))?.*
! Touchstone port assignment:
! Touchstone port 1 = CST MWS port 1 ("Input1")
! Touchstone port 2 = CST MWS port 2 ("Input2")
# GHz S MA R 50
4.6                    0.1864841       -158.9156        0.6797438         62.8328        0.6797433        62.83277        0.1864846       -158.9156
4.6014                  0.192632       -160.0937        0.6806982        61.92047        0.6806977        61.92044        0.1926325       -160.0937
4.6028                 0.1987598       -161.2464        0.6816015        61.00116        0.6816009        61.00113        0.1987605       -161.2464
4.6042                 0.2048689       -162.3752        0.6824473        60.07463        0.6824468         60.0746        0.2048695       -162.3753
4.6056                 0.2109613       -163.4815         0.683229         59.1407        0.6832285        59.14069        0.2109619       -163.4816
4.607                  0.2170396       -164.5669        0.6839402        58.19934        0.6839396        58.19933        0.2170402        -164.567
4.6084                 0.2231069        -165.633        0.6845737        57.25055        0.6845733        57.25054        0.2231075       -165.6331
4.6098                 0.2291662       -166.6819        0.6851238        56.29444        0.6851232        56.29442        0.2291668       -166.6819
4.6112                 0.2352203       -167.7153        0.6855843        55.33118        0.6855838        55.33118        0.2352209       -167.7153
4.6126                 0.2412714       -168.7353          0.68595        54.36103        0.6859496        54.36103         0.241272       -168.7354
4.614                   0.247321        -169.744        0.6862169        53.38426        0.6862164        53.38426        0.2473216       -169.7441
4.6154                 0.2533696       -170.7434        0.6863812        52.40117        0.6863807        52.40118        0.2533702       -170.7435
4.6168                 0.2594166       -171.7354        0.6864405         51.4121        0.6864401         51.4121        0.2594171       -171.7355
4.6182                 0.2654601        -172.722        0.6863931        50.41736        0.6863928        50.41736        0.2654606       -172.7221
4.6196                  0.271497       -173.7048        0.6862383        49.41723        0.6862379        49.41724        0.2714975       -173.7049
4.621                   0.277523       -174.6852         0.685976        48.41201        0.6859755        48.41201        0.2775234       -174.6852
4.6224                 0.2835326       -175.6644        0.6856066        47.40188        0.6856062        47.40188         0.283533       -175.6645
4.6238                 0.2895193       -176.6435        0.6851314          46.387         0.685131          46.387        0.2895197       -176.6436
4.6252                 0.2954758       -177.6232        0.6845516        45.36746        0.6845511        45.36747        0.2954762       -177.6232
4.6266                 0.3013943       -178.6038        0.6838687        44.34332        0.6838682        44.34333        0.3013948       -178.6038
4.628                  0.3072666       -179.5856         0.683084        43.31452        0.6830836        43.31453         0.307267       -179.5856
4.6294                 0.3130842        179.4315        0.6821988        42.28096        0.6821984        42.28097        0.3130847        179.4315
4.6308                 0.3188391        178.4477        0.6812137         41.2425        0.6812133        41.24251        0.3188396        178.4477
4.6322                 0.3245234        177.4635         0.680129        40.19894        0.6801287        40.19894        0.3245239        177.4635
4.6336                   0.33013        176.4795        0.6789443        39.15001        0.6789439        39.15002        0.3301306        176.4795
4.635                  0.3356525        175.4964        0.6776583        38.09549        0.6776579         38.0955        0.3356532        175.4965
4.6364                 0.3410856        174.5151        0.6762693        37.03509        0.6762689         37.0351        0.3410863        174.5151
4.6378                 0.3464248        173.5363        0.6747745        35.96854        0.6747741        35.96856        0.3464255        173.5363
4.6392                 0.3516667        172.5608        0.6731705        34.89559        0.6731701        34.89561        0.3516676        172.5608
4.6406                 0.3568092        171.5895        0.6714534        33.81601        0.6714529        33.81603        0.3568102        171.5895
4.642                  0.3618513        170.6231        0.6696184        32.72963         0.669618        32.72965        0.3618523        170.6231
4.6434                 0.3667927        169.6622        0.6676604        31.63628        0.6676601        31.63631        0.3667937        169.6622
4.6448                 0.3716342        168.7074        0.6655741         30.5359        0.6655739        30.53592        0.3716352        168.7074
4.6462                 0.3763772        167.7592        0.6633539        29.42846        0.6633536        29.42848        0.3763782        167.7591
4.6476                 0.3810236        166.8177        0.6609938        28.31399        0.6609936        28.31401        0.3810246        166.8177
4.649                   0.385576        165.8833        0.6584885        27.19258        0.6584883         27.1926         0.385577        165.8833
4.6504                 0.3900369        164.9561        0.6558322         26.0644         0.655832        26.06442        0.3900379         164.956
4.6518                 0.3944088         164.036        0.6530199        24.92965        0.6530197        24.92967        0.3944098        164.0359
4.6532                 0.3986946        163.1229        0.6500466         23.7886        0.6500464        23.78863        0.3986955        163.1229
4.6546                 0.4028964        162.2168        0.6469081        22.64156         0.646908        22.64159        0.4028972        162.2167
4.656                  0.4070164        161.3174        0.6436004        21.48888        0.6436004         21.4889        0.4070172        161.3173
4.6574                 0.4110563        160.4245        0.6401201        20.33093          0.64012        20.33095        0.4110571        160.4244
4.6588                 0.4150177        159.5379        0.6364644        19.16813        0.6364643        19.16815        0.4150183        159.5378
4.6602                 0.4189014        158.6574        0.6326306         18.0009        0.6326306        18.00092        0.4189021        158.6573
4.6616                 0.4227087        157.7829        0.6286169        16.82971        0.6286169        16.82972        0.4227093        157.7828
4.663                  0.4264402        156.9142        0.6244216          15.655        0.6244216        15.65502        0.4264407        156.9141
4.6644                 0.4300968        156.0513        0.6200434        14.47728        0.6200434        14.47729        0.4300973        156.0512
4.6658                 0.4336794        155.1941        0.6154814        13.29703        0.6154814        13.29704        0.4336799         155.194
4.6672                 0.4371895        154.3427        0.6107347        12.11479        0.6107347         12.1148        0.4371899        154.3426
4.6686                 0.4406287        153.4971         0.605803        10.93112         0.605803        10.93113        0.4406291        153.4971
4.67                   0.4439994        152.6574        0.6006858        9.746605        0.6006858        9.746609        0.4439998        152.6574
4.6714                 0.4473047        151.8237        0.5953831        8.561881        0.5953831        8.561884        0.4473051        151.8237
4.6728                 0.4505483         150.996        0.5898951        7.377641        0.5898951        7.377644        0.4505488         150.996
4.6742                 0.4537349        150.1743        0.5842221        6.194645         0.584222        6.194647        0.4537354        150.1743
4.6756                 0.4568697        149.3585        0.5783649        5.013725        0.5783648        5.013726        0.4568702        149.3585
4.677                  0.4599587        148.5484        0.5723248          3.8358        0.5723247          3.8358        0.4599592        148.5484
4.6784                 0.4630084        147.7437        0.5661036        2.661885        0.5661035        2.661885        0.4630092        147.7437
4.6798                 0.4660259         146.944        0.5597038        1.493097        0.5597037        1.493098        0.4660266         146.944
4.6812                 0.4690179        146.1486        0.5531288       0.3306631        0.5531287       0.3306644        0.4690186        146.1486
4.6826                 0.4719911        145.3568         0.546383      -0.8240815        0.5463828      -0.8240794        0.4719919        145.3568
4.684                  0.4749521        144.5677        0.5394719       -1.969689        0.5394718       -1.969686        0.4749529        144.5677
4.6854                 0.4779063        143.7801        0.5324021       -3.104606        0.5324021       -3.104602        0.4779072        143.7801
4.6868                 0.4808582        142.9928        0.5251822       -4.227178        0.5251822       -4.227172        0.4808589        142.9928
4.6882                 0.4838107        142.2045        0.5178218       -5.335665        0.5178217       -5.335657        0.4838115        142.2045
4.6896                 0.4867651        141.4138        0.5103321       -6.428249         0.510332        -6.42824        0.4867659        141.4138
4.691                  0.4897209        140.6191         0.502726        -7.50307         0.502726       -7.503061        0.4897217        140.6191
4.6924                 0.4926755         139.819        0.4950184       -8.558229        0.4950183       -8.558217        0.4926763         139.819
4.6938                 0.4956239         139.012        0.4872251       -9.591838         0.487225       -9.591827        0.4956246         139.012
4.6952                 0.4985591        138.1968        0.4793638       -10.60203        0.4793637       -10.60202        0.4985597        138.1967
4.6966                 0.5014716        137.3719        0.4714535       -11.58702        0.4714534         -11.587        0.5014722        137.3719
4.698                    0.50435        136.5364        0.4635144       -12.54512        0.4635143       -12.54512        0.5043507        136.5364
4.6994                 0.5071814        135.6893        0.4555674       -13.47481        0.4555674       -13.47478        0.5071819        135.6893
4.7008                 0.5099505        134.8299        0.4476344       -14.37468        0.4476344       -14.37468        0.5099511        134.8299
4.7022                 0.5126414        133.9578        0.4397373       -15.24368        0.4397373       -15.24365        0.5126418        133.9578
4.7036                 0.5152368        133.0728        0.4318982       -16.08087        0.4318982       -16.08087        0.5152373        133.0728
4.705                  0.5177193        132.1749        0.4241389       -16.88579        0.4241389       -16.88579        0.5177198        132.1749
4.7064                 0.5200711        131.2646          0.41648       -17.65815        0.4164801       -17.65814        0.5200715        131.2646
4.7078                 0.5222749        130.3424        0.4089416       -18.39809        0.4089417       -18.39809        0.5222754        130.3424
4.7092                 0.5243141        129.4093        0.4015418       -19.10616        0.4015419       -19.10616        0.5243147        129.4092
4.7106                 0.5261735        128.4662        0.3942971       -19.78319        0.3942971       -19.78319         0.526174        128.4662
4.712                  0.5278391        127.5145        0.3872216       -20.43045        0.3872217       -20.43045        0.5278396        127.5145
4.7134                  0.529299        126.5557        0.3803273       -21.04956        0.3803273       -21.04956        0.5292995        126.5557
4.7148                 0.5305434        125.5913        0.3736231       -21.64242        0.3736231       -21.64242         0.530544        125.5913
4.7162                 0.5315647        124.6231        0.3671155       -22.21126        0.3671155       -22.21126        0.5315654        124.6231
4.7176                 0.5323581        123.6529         0.360808       -22.75849         0.360808       -22.75849        0.5323587        123.6529
4.719                  0.5329209        122.6823        0.3547014       -23.28671        0.3547014       -23.28671        0.5329216        122.6823
4.7204                 0.5332533        121.7133        0.3487936       -23.79859        0.3487936        -23.7986         0.533254        121.7133
4.7218                 0.5333579        120.7474        0.3430801       -24.29684        0.3430801       -24.29684        0.5333585        120.7474
4.7232                 0.5332394        119.7864        0.3375543       -24.78409        0.3375543       -24.78409        0.5332401        119.7864
4.7246                  0.532905        118.8318        0.3322073       -25.26286        0.3322073       -25.26287        0.5329058        118.8318
4.726                  0.5323635        117.8849        0.3270289       -25.73547        0.3270289       -25.73548        0.5323642        117.8849
4.7274                 0.5316253         116.947        0.3220077         -26.204        0.3220077       -26.20401        0.5316261        116.9469
4.7288                 0.5307022         116.019        0.3171314       -26.67023        0.3171314       -26.67023        0.5307029         116.019
4.7302                 0.5296067        115.1019        0.3123875       -27.13562        0.3123875       -27.13562        0.5296075        115.1019
4.7316                 0.5283522        114.1963        0.3077635        -27.6013        0.3077635       -27.60131        0.5283529        114.1963
4.733                  0.5269517        113.3026        0.3032474       -28.06807        0.3032474       -28.06807        0.5269523        113.3026
4.7344                 0.5254185        112.4211        0.2988278       -28.53639        0.2988278       -28.53639        0.5254191        112.4211
4.7358                 0.5237651        111.5518        0.2944945       -29.00642        0.2944944       -29.00644        0.5237657        111.5517
4.7372                 0.5220036        110.6946        0.2902383       -29.47809        0.2902383        -29.4781        0.5220041        110.6946
4.7386                 0.5201447        109.8493        0.2860516       -29.95108        0.2860516       -29.95108        0.5201452        109.8493
4.74                   0.5181981        109.0156         0.281928       -30.42489         0.281928       -30.42491        0.5181985        109.0156
4.7414                 0.5161722        108.1929        0.2778627       -30.89896        0.2778627       -30.89897        0.5161727        108.1929
4.7428                 0.5140741        107.3809         0.273852       -31.37262        0.2738521       -31.37264        0.5140745        107.3809
4.7442                 0.5119095         106.579        0.2698939       -31.84523        0.2698939       -31.84525        0.5119099         106.579
4.7456                 0.5096829        105.7866         0.265987       -32.31619         0.265987       -32.31622        0.5096832        105.7866
4.747                  0.5073976        105.0033         0.262131       -32.78499         0.262131       -32.78502        0.5073978        105.0033
4.7484                 0.5050557        104.2286        0.2583265       -33.25126        0.2583265       -33.25129         0.505056        104.2286
4.7498                 0.5026592        103.4623        0.2545742       -33.71477        0.2545742       -33.71482        0.5026594        103.4623
4.7512                 0.5002087         102.704        0.2508752        -34.1755        0.2508752       -34.17554         0.500209         102.704
4.7526                 0.4977052        101.9535        0.2472306       -34.63361        0.2472305       -34.63364        0.4977054        101.9535
4.754                   0.495149        101.2108        0.2436412        -35.0894        0.2436411       -35.08944        0.4951493        101.2108
4.7554                 0.4925411        100.4759        0.2401074       -35.54339        0.2401073       -35.54343        0.4925414        100.4759
4.7568                 0.4898824        99.74876        0.2366292       -35.99623        0.2366291       -35.99627        0.4898827        99.74879
4.7582                 0.4871744        99.02965        0.2332059       -36.44867        0.2332058       -36.44871        0.4871747        99.02968
4.7596                 0.4844193        98.31881        0.2298362       -36.90154         0.229836       -36.90158        0.4844195        98.31881
4.761                  0.4816199        97.61637        0.2265179       -37.35572        0.2265177       -37.35576        0.4816202        97.61637
4.7624                 0.4787796        96.92258        0.2232484       -37.81206        0.2232482       -37.81209        0.4787799        96.92264
4.7638                 0.4759028        96.23772        0.2200243       -38.27136        0.2200241       -38.27139        0.4759031        96.23774
4.7652                 0.4729941        95.56192        0.2168421        -38.7343        0.2168418       -38.73433        0.4729944        95.56192
4.7666                 0.4700589        94.89527        0.2136974       -39.20149        0.2136972        -39.2015        0.4700592         94.8953
4.768                  0.4671027         94.2378        0.2105862       -39.67331         0.210586       -39.67331        0.4671031        94.23783
4.7694                 0.4641316        93.58948        0.2075042       -40.14999         0.207504       -40.14998        0.4641319        93.58947
4.7708                 0.4611511        92.95009        0.2044473       -40.63156         0.204447       -40.63156        0.4611514        92.95009
4.7722                 0.4581671        92.31935        0.2014116       -41.11788        0.2014114       -41.11787        0.4581673        92.31934
4.7736                 0.4551845        91.69684        0.1983938        -41.6086        0.1983936       -41.60858        0.4551848        91.69684
4.775                  0.4522081        91.08209        0.1953911       -42.10325        0.1953908       -42.10322        0.4522083        91.08209
4.7764                 0.4492418         90.4745        0.1924013       -42.60115        0.1924011       -42.60111        0.4492419         90.4745
4.7778                 0.4462884        89.87341        0.1894229       -43.10159        0.1894228       -43.10155        0.4462886        89.87344
4.7792                 0.4433501        89.27809        0.1864553       -43.60376        0.1864551       -43.60371        0.4433502        89.27812
4.7806                  0.440428        88.68779        0.1834982       -44.10685        0.1834981        -44.1068        0.4404281        88.68782
4.782                  0.4375221         88.1018        0.1805523       -44.61006        0.1805522       -44.61001        0.4375222        88.10183
4.7834                 0.4346316        87.51941        0.1776188       -45.11268        0.1776187       -45.11263        0.4346316        87.51944
4.7848                 0.4317548        86.93991        0.1746992        -45.6141        0.1746991       -45.61405        0.4317548        86.93991
4.7862                 0.4288891        86.36266        0.1717955       -46.11388        0.1717954       -46.11383        0.4288892        86.36269
4.7876                 0.4260319        85.78723        0.1689098       -46.61174        0.1689098       -46.61168        0.4260318        85.78729
4.789                  0.4231795        85.21321        0.1660444        -47.1076        0.1660444       -47.10755        0.4231795        85.21324
4.7904                 0.4203286        84.64029        0.1632013       -47.60166        0.1632013        -47.6016        0.4203286        84.64034
4.7918                 0.4174757         84.0683        0.1603824       -48.09426        0.1603824       -48.09421        0.4174757        84.06832
4.7932                 0.4146174        83.49715        0.1575892       -48.58602        0.1575892       -48.58598        0.4146176         83.4972
4.7946                 0.4117511        82.92692        0.1548228       -49.07775        0.1548228       -49.07771        0.4117512          82.927
4.796                  0.4088743        82.35777        0.1520836       -49.57041        0.1520837       -49.57037        0.4088745        82.35783
4.7974                 0.4059855        81.78987        0.1493716       -50.06514        0.1493716       -50.06511        0.4059856        81.78994
4.7988                 0.4030836        81.22349         0.146686       -50.56313         0.146686        -50.5631        0.4030838        81.22355
4.8002                 0.4001685        80.65893        0.1440254       -51.06565        0.1440255       -51.06562        0.4001687        80.65899
4.8016                  0.397241        80.09645        0.1413881       -51.57395        0.1413882       -51.57393        0.3972412         80.0965
4.803                  0.3943023        79.53631        0.1387715       -52.08923        0.1387716       -52.08922        0.3943025        79.53638
4.8044                 0.3913544        78.97875        0.1361729       -52.61259         0.136173       -52.61259        0.3913547        78.97879
4.8058                 0.3883999        78.42386        0.1335891       -53.14499        0.1335892         -53.145        0.3884002        78.42392
4.8072                 0.3854416        77.87168        0.1310169        -53.6872        0.1310169        -53.6872        0.3854419        77.87172
4.8086                 0.3824826        77.32215        0.1284528       -54.23975        0.1284528       -54.23977        0.3824828        77.32218
4.81                   0.3795258        76.77506        0.1258936       -54.80302        0.1258937       -54.80303         0.379526         76.7751
4.8114                 0.3765743         76.2301        0.1233363       -55.37706        0.1233364       -55.37708        0.3765745        76.23014
4.8128                 0.3736305        75.68685        0.1207781       -55.96178        0.1207781        -55.9618        0.3736307        75.68688
4.8142                 0.3706965        75.14476        0.1182166       -56.55682        0.1182166       -56.55684        0.3706967        75.14479
4.8156                 0.3677738        74.60318          0.11565       -57.16165          0.11565       -57.16167        0.3677739        74.60322
4.817                  0.3648629        74.06143        0.1130768       -57.77561        0.1130769       -57.77565         0.364863        74.06146
4.8184                 0.3619636        73.51873        0.1104964       -58.39793        0.1104964       -58.39796        0.3619637        73.51876
4.8198                  0.359075        72.97431        0.1079083       -59.02774        0.1079083       -59.02779        0.3590751        72.97434
4.8212                 0.3561955        72.42738        0.1053129       -59.66424        0.1053129       -59.66427        0.3561955        72.42741
4.8226                 0.3533222        71.87719        0.1027108        -60.3066        0.1027108       -60.30665        0.3533222        71.87723
4.824                   0.350452        71.32307         0.100103       -60.95419         0.100103       -60.95424         0.350452         71.3231
4.8254                 0.3475813         70.7644         0.097491       -61.60648       0.09749097       -61.60653        0.3475812        70.76445
4.8268                 0.3447057        70.20068       0.09487622       -62.26319       0.09487619       -62.26324        0.3447057        70.20073
4.8282                 0.3418211        69.63151       0.09226033       -62.92431       0.09226029       -62.92437         0.341821        69.63156
4.8296                 0.3389229         69.0566       0.08964492        -63.5901       0.08964486       -63.59016        0.3389229        69.05666
4.831                  0.3360069        68.47584       0.08703144       -64.26122       0.08703136       -64.26128        0.3360069         68.4759
4.8324                  0.333069        67.88915       0.08442111       -64.93861       0.08442103       -64.93868         0.333069        67.88922
4.8338                 0.3301057        67.29664       0.08181482       -65.62367       0.08181472       -65.62374        0.3301057         67.2967
4.8352                 0.3271141        66.69842       0.07921305       -66.31808       0.07921294       -66.31815         0.327114         66.6985
4.8366                 0.3240915        66.09477       0.07661587       -67.02397       0.07661575       -67.02402        0.3240915        66.09483
4.838                  0.3210364        65.48589        0.0740228       -67.74375       0.07402269       -67.74381        0.3210364        65.48597
4.8394                 0.3179477         64.8721       0.07143296       -68.48021       0.07143282       -68.48025        0.3179477        64.87218
4.8408                  0.314825        64.25365       0.06884495       -69.23637        0.0688448       -69.23643        0.3148251        64.25372
4.8422                 0.3116685        63.63073       0.06625696       -70.01563       0.06625682       -70.01566        0.3116686        63.63081
4.8436                 0.3084791        63.00351       0.06366682       -70.82155       0.06366666       -70.82157        0.3084792        63.00359
4.845                  0.3052577        62.37202       0.06107205       -71.65797       0.06107189         -71.658        0.3052578        62.37209
4.8464                 0.3020058        61.73619       0.05847002       -72.52905       0.05846985       -72.52905        0.3020059        61.73626
4.8478                 0.2987247         61.0958       0.05585796       -73.43918       0.05585779       -73.43917        0.2987248        61.09587
4.8492                 0.2954158         60.4505       0.05323313       -74.39318       0.05323296       -74.39314        0.2954159        60.45057
4.8506                 0.2920802        59.79981       0.05059292       -75.39632       0.05059275       -75.39628        0.2920802        59.79987
4.852                  0.2887184        59.14309       0.04793491       -76.45468       0.04793475       -76.45462        0.2887184        59.14315
4.8534                 0.2853306        58.47958       0.04525702       -77.57528       0.04525687       -77.57519        0.2853306        58.47963
4.8548                 0.2819164        57.80841       0.04255756       -78.76658       0.04255741       -78.76647        0.2819163        57.80844
4.8562                 0.2784743        57.12859       0.03983531       -80.03919       0.03983517       -80.03907        0.2784742        57.12863
4.8576                 0.2750023        56.43912       0.03708963       -81.40673       0.03708949       -81.40659        0.2750022        56.43917
4.859                  0.2714977        55.73895       0.03432047       -82.88731       0.03432035       -82.88713        0.2714975        55.73899
4.8604                 0.2679567        55.02699       0.03152856       -84.50567       0.03152844       -84.50545        0.2679566        55.02703
4.8618                 0.2643753        54.30222       0.02871545       -86.29676       0.02871535       -86.29653        0.2643751        54.30228
4.8632                 0.2607484        53.56369       0.02588379       -88.31159        0.0258837       -88.31133        0.2607482        53.56374
4.8646                 0.2570708        52.81047        0.0230377       -90.62722       0.02303762       -90.62691        0.2570706        52.81053
4.866                  0.2533369        52.04179       0.02018359       -93.36524       0.02018351       -93.36488        0.2533367        52.04185
4.8674                 0.2495408        51.25696       0.01733174       -96.72779       0.01733167       -96.72738        0.2495405        51.25703
4.8688                 0.2456766        50.45545       0.01449989       -101.0728       0.01449983       -101.0723        0.2456763        50.45552
4.8702                 0.2417387        49.63681       0.01172187       -107.0851        0.0117218       -107.0845        0.2417384         49.6369
4.8716                 0.2377216        48.80076      0.009070901       -116.1924       0.00907083       -116.1917        0.2377213        48.80085