! TOUCHSTONE file generated by CST MICROWAVE STUDIO
! Date and time: Sun Dec  1 17:16:59 2024
! Project name: test_tuning.cst
! Parameters = {airCoaxOuterDiameter=3; chamferAngle=45; chamferWidth=24; connectorLength=10; drillingHoleDiameter=4.1; feedLength=60; flareDiameter=130; flareLength=70; gratingDistance=0; gratingGap=1.90274; outletLength=30; polarizerLength=82; probe1Diameter=1.3; probe1Distance=14; probe1Length=12; probe2Diameter=1.3; probe2Distance=0; probe2Length=12; probeLength=12; smaInnerDiameter=1.3; smaOuterDiameter=4.1; transitionCoefficient=1.33; waveguideFeedLength=30; waveguideSide=50; waveguideThickness=3; wireCount=25; wireDiameter=1.17699}
! Header version: 2024
! Port assignment regex: !\s*Touchstone port\s*([0-9]+)\s*=\s*(CST MWS port|CST DES external port|CST DES block port)\s*(.+)\s* \(\"(.*)\"\)(\s*mode\s*([0-9]+))?.*
! Touchstone port assignment:
! Touchstone port 1 = CST MWS port 1 ("Input1")
! Touchstone port 2 = CST MWS port 2 ("Input2")
# GHz S MA R 50
4.6                    0.2188776       -154.3304        0.5913556         65.7508        0.5913548        65.75074        0.2188775       -154.3306
4.6014                 0.2256813       -155.3875        0.5934909         64.8739        0.5934902        64.87382        0.2256813       -155.3876
4.6028                 0.2325197       -156.4423         0.595555        63.98678        0.5955541        63.98673        0.2325199       -156.4423
4.6042                 0.2393889       -157.4953        0.5975426        63.08954        0.5975417        63.08947        0.2393891       -157.4953
4.6056                 0.2462846       -158.5473        0.5994486        62.18221        0.5994475        62.18214        0.2462849       -158.5473
4.607                  0.2532024       -159.5988        0.6012675        61.26493        0.6012664        61.26486        0.2532029       -159.5988
4.6084                 0.2601381       -160.6504        0.6029942        60.33784         0.602993        60.33777        0.2601388       -160.6503
4.6098                 0.2670873       -161.7025        0.6046234        59.40114         0.604622        59.40108        0.2670881       -161.7024
4.6112                 0.2740454       -162.7554        0.6061498        58.45504        0.6061483        58.45498        0.2740464       -162.7553
4.6126                 0.2810076       -163.8096        0.6075684        57.49981        0.6075669        57.49975        0.2810088       -163.8095
4.614                  0.2879694       -164.8654        0.6088745        56.53571        0.6088729        56.53565        0.2879707       -164.8653
4.6154                 0.2949256        -165.923        0.6100634        55.56306        0.6100617        55.56301        0.2949272       -165.9228
4.6168                 0.3018713       -166.9826        0.6111309        54.58219        0.6111292        54.58215        0.3018731       -166.9825
4.6182                 0.3088013       -168.0444         0.612073        53.59346        0.6120713        53.59343        0.3088032       -168.0443
4.6196                 0.3157102       -169.1087        0.6128861        52.59725        0.6128842        52.59722        0.3157123       -169.1086
4.621                  0.3225925       -170.1755        0.6135669        51.59395        0.6135649        51.59394        0.3225947       -170.1754
4.6224                 0.3294426       -171.2449        0.6141123        50.58396        0.6141104        50.58396         0.329445       -171.2448
4.6238                 0.3362547        -172.317        0.6145201        49.56771        0.6145182        49.56772        0.3362573        -172.317
4.6252                  0.343023       -173.3918        0.6147883        48.54561        0.6147862        48.54563        0.3430257       -173.3917
4.6266                 0.3497413       -174.4692        0.6149149        47.51809         0.614913        47.51811        0.3497441       -174.4692
4.628                  0.3564036       -175.5493         0.614899        46.48557        0.6148971         46.4856        0.3564065       -175.5494
4.6294                 0.3630037        -176.632        0.6147396        45.44848        0.6147377        45.44852        0.3630067       -176.6321
4.6308                 0.3695353       -177.7172        0.6144364        44.40723        0.6144345        44.40728        0.3695383       -177.7172
4.6322                 0.3759921       -178.8046        0.6139894        43.36224        0.6139875         43.3623        0.3759951       -178.8047
4.6336                 0.3823677       -179.8942         0.613399        42.31389         0.613397        42.31397        0.3823708       -179.8943
4.635                  0.3886559        179.0143        0.6126658        41.26258        0.6126639        41.26266         0.388659        179.0142
4.6364                 0.3948503        177.9211        0.6117907        40.20869        0.6117889        40.20878        0.3948533        177.9209
4.6378                 0.4009447        176.8264        0.6107754        39.15257        0.6107736        39.15266        0.4009477        176.8262
4.6392                  0.406933        175.7306        0.6096214        38.09453        0.6096197        38.09464         0.406936        175.7304
4.6406                 0.4128093        174.6339        0.6083305        37.03494        0.6083289        37.03505        0.4128121        174.6337
4.642                  0.4185676        173.5367         0.606905        35.97406        0.6069034        35.97419        0.4185704        173.5365
4.6434                 0.4242025        172.4394        0.6053469         34.9122        0.6053454        34.91233        0.4242052        172.4392
4.6448                 0.4297084        171.3424        0.6036589        33.84961        0.6036576        33.84974         0.429711        171.3421
4.6462                 0.4350803        170.2459        0.6018436        32.78653        0.6018423        32.78667        0.4350827        170.2457
4.6476                 0.4403134        169.1505        0.5999035         31.7232        0.5999024        31.72333        0.4403157        169.1503
4.649                  0.4454031        168.0566        0.5978417         30.6598        0.5978405        30.65994        0.4454052        168.0564
4.6504                 0.4503452        166.9646        0.5956606        29.59654        0.5956595        29.59668        0.4503472        166.9644
4.6518                  0.455136        165.8749        0.5933633        28.53358        0.5933623        28.53372        0.4551379        165.8747
4.6532                 0.4597722        164.7881        0.5909526        27.47108        0.5909518        27.47122        0.4597739        164.7878
4.6546                 0.4642507        163.7045        0.5884314        26.40918        0.5884307        26.40932        0.4642522        163.7042
4.656                  0.4685688        162.6245        0.5858026        25.34802        0.5858019        25.34816        0.4685703        162.6243
4.6574                 0.4727247        161.5487        0.5830688        24.28771        0.5830682        24.28785        0.4727259        161.5485
4.6588                 0.4767165        160.4776        0.5802329        23.22836        0.5802324         23.2285        0.4767177        160.4774
4.6602                 0.4805432        159.4114        0.5772976        22.17009        0.5772972        22.17023        0.4805442        159.4112
4.6616                 0.4842038        158.3506        0.5742656        21.11299        0.5742652        21.11312        0.4842047        158.3504
4.663                  0.4876982        157.2957        0.5711394        20.05715         0.571139        20.05728         0.487699        157.2955
4.6644                 0.4910265         156.247        0.5679217        19.00268        0.5679214        19.00281        0.4910272        156.2469
4.6658                 0.4941892        155.2049        0.5646151        17.94967        0.5646148        17.94979        0.4941899        155.2048
4.6672                 0.4971873        154.1698        0.5612219        16.89821        0.5612217        16.89833        0.4971879        154.1697
4.6686                 0.5000222        153.1419         0.557745         15.8484        0.5577448        15.84851        0.5000227        153.1418
4.67                   0.5026956        152.1216        0.5541864        14.80035        0.5541863        14.80046        0.5026961        152.1215
4.6714                 0.5052096        151.1091        0.5505491        13.75417        0.5505489        13.75428        0.5052101         151.109
4.6728                 0.5075666        150.1047        0.5468353        12.70996        0.5468352        12.71007        0.5075671        150.1046
4.6742                 0.5097692        149.1085        0.5430478        11.66785        0.5430477        11.66795        0.5097697        149.1085
4.6756                 0.5118203        148.1209        0.5391892        10.62796        0.5391891        10.62805        0.5118209        148.1208
4.677                  0.5137231        147.1418        0.5352622        9.590412        0.5352622        9.590505        0.5137236        147.1418
4.6784                 0.5154808        146.1715        0.5312697        8.555346        0.5312697        8.555434        0.5154814        146.1715
4.6798                 0.5170967          145.21        0.5272146        7.522895        0.5272145        7.522979        0.5170974          145.21
4.6812                 0.5185744        144.2574        0.5230998        6.493196        0.5230997        6.493278        0.5185752        144.2574
4.6826                 0.5199173        143.3137        0.5189286        5.466388        0.5189285        5.466467        0.5199183        143.3137
4.684                   0.521129        142.3789        0.5147042        4.442608        0.5147042        4.442684        0.5211301         142.379
4.6854                 0.5222129         141.453        0.5104301        3.421987          0.51043        3.422062        0.5222141        141.4531
4.6868                 0.5231724         140.536        0.5061097         2.40465        0.5061096        2.404724        0.5231736         140.536
4.6882                 0.5240107        139.6277        0.5017467        1.390715        0.5017467        1.390786         0.524012        139.6277
4.6896                 0.5247311        138.7281        0.4973451       0.3802827         0.497345       0.3803533        0.5247324        138.7281
4.691                  0.5253363         137.837        0.4929085      -0.6265582        0.4929085      -0.6264885        0.5253378         137.837
4.6924                 0.5258292        136.9544        0.4884412        -1.62974        0.4884412       -1.629671        0.5258308        136.9544
4.6938                 0.5262124        136.0801        0.4839472       -2.629219        0.4839472        -2.62915        0.5262141        136.0802
4.6952                 0.5264882         135.214        0.4794307       -3.624976        0.4794306       -3.624907        0.5264899         135.214
4.6966                 0.5266587         134.356        0.4748958       -4.617023        0.4748957       -4.616955        0.5266605         134.356
4.698                  0.5267256        133.5059        0.4703469       -5.605405        0.4703469       -5.605337        0.5267274        133.5059
4.6994                 0.5266906        132.6636        0.4657882       -6.590206        0.4657882       -6.590139        0.5266925        132.6636
4.7008                 0.5265551        131.8289        0.4612239       -7.571572        0.4612239       -7.571462         0.526557        131.8289
4.7022                 0.5263202        131.0019        0.4566581       -8.549595         0.456658       -8.549541        0.5263222        131.0019
4.7036                 0.5259868        130.1824        0.4520948       -9.524595        0.4520948       -9.524539        0.5259888        130.1824
4.705                  0.5255558        129.3703        0.4475378       -10.49676        0.4475378       -10.49671        0.5255578        129.3703
4.7064                 0.5250277        128.5657        0.4429911       -11.46642         0.442991       -11.46637        0.5250296        128.5657
4.7078                 0.5244031        127.7685        0.4384578       -12.43396        0.4384578       -12.43388        0.5244049        127.7685
4.7092                 0.5236822        126.9788        0.4339413       -13.39979        0.4339413       -13.39968         0.523684        126.9787
4.7106                 0.5228655        126.1966        0.4294446       -14.36433        0.4294446       -14.36426        0.5228672        126.1965
4.712                  0.5219533         125.422        0.4249702       -15.32817        0.4249703       -15.32811        0.5219549        125.4219
4.7134                 0.5209459        124.6552        0.4205205       -16.29187        0.4205205        -16.2918        0.5209475        124.6551
4.7148                 0.5198439        123.8964        0.4160973       -17.25604        0.4160973       -17.25597        0.5198454        123.8963
4.7162                 0.5186478        123.1457        0.4117021       -18.22135        0.4117021       -18.22129        0.5186492        123.1456
4.7176                 0.5173584        122.4034        0.4073359       -19.18853         0.407336       -19.18847        0.5173597        122.4033
4.719                  0.5159766        121.6699        0.4029995       -20.15832        0.4029996       -20.15826        0.5159778        121.6698
4.7204                 0.5145037        120.9454        0.3986929       -21.13152        0.3986931       -21.13146        0.5145048        120.9453
4.7218                 0.5129412        120.2303         0.394416       -22.10894        0.3944161       -22.10888        0.5129421        120.2302
4.7232                  0.511291         119.525         0.390168       -23.09143        0.3901681       -23.09137        0.5112918        119.5249
4.7246                 0.5095554        118.8299        0.3859477       -24.07985        0.3859478        -24.0798        0.5095561        118.8298
4.726                   0.507737        118.1455        0.3817535       -25.07507        0.3817536       -25.07503        0.5077376        118.1454
4.7274                  0.505839        117.4722        0.3775833       -26.07798        0.3775835       -26.07794        0.5058395        117.4721
4.7288                 0.5038649        116.8106        0.3734349       -27.08946         0.373435       -27.08942        0.5038654        116.8105
4.7302                 0.5018189         116.161        0.3693053       -28.11037        0.3693054       -28.11033        0.5018192        116.1609
4.7316                 0.4997055         115.524        0.3651914       -29.14157        0.3651915       -29.14154        0.4997057         115.524
4.733                  0.4975297        114.9002        0.3610899        -30.1839          0.36109       -30.18386        0.4975299        114.9001
4.7344                 0.4952972        114.2899         0.356997       -31.23815        0.3569971       -31.23812        0.4952973        114.2899
4.7358                  0.493014        113.6937        0.3529089       -32.30511         0.352909       -32.30509        0.4930141        113.6937
4.7372                 0.4906866        113.1119        0.3488214       -33.38552        0.3488214       -33.38551        0.4906867        113.1119
4.7386                 0.4883221        112.5451        0.3447304       -34.48008        0.3447305       -34.48006        0.4883222        112.5451
4.74                   0.4859279        111.9935        0.3406317       -35.58942        0.3406318        -35.5894        0.4859279        111.9935
4.7414                 0.4835118        111.4574         0.336521       -36.71415         0.336521       -36.71414        0.4835118        111.4575
4.7428                 0.4810819        110.9373        0.3323941       -37.85482        0.3323941       -37.85481         0.481082        110.9373
4.7442                 0.4786467        110.4331        0.3282468       -39.01194        0.3282468       -39.01192        0.4786469        110.4331
4.7456                 0.4762149         109.945        0.3240751       -40.18592        0.3240751       -40.18591        0.4762151        109.9451
4.747                  0.4737953        109.4732        0.3198752       -41.37717        0.3198752       -41.37716        0.4737956        109.4733
4.7484                 0.4713969        109.0174        0.3156435       -42.58602        0.3156435       -42.58601        0.4713973        109.0175
4.7498                 0.4690286        108.5777        0.3113766       -43.81275        0.3113766       -43.81273        0.4690291        108.5778
4.7512                 0.4666994        108.1536        0.3070716       -45.05759        0.3070715       -45.05758           0.4667        108.1537
4.7526                  0.464418         107.745        0.3027256       -46.32072        0.3027255       -46.32071        0.4644188        107.7451
4.754                  0.4621931        107.3512        0.2983365        -47.6023        0.2983363       -47.60228        0.4621939        107.3514
4.7554                 0.4600326        106.9718        0.2939021        -48.9024         0.293902       -48.90238        0.4600336         106.972
4.7568                 0.4579447        106.6061        0.2894211        -50.2211         0.289421       -50.22108        0.4579458        106.6063
4.7582                 0.4559366        106.2533        0.2848923       -51.55842        0.2848922       -51.55841        0.4559378        106.2534
4.7596                 0.4540151        105.9124        0.2803151       -52.91438        0.2803149       -52.91435        0.4540164        105.9126
4.761                  0.4521864        105.5826        0.2756892       -54.28894        0.2756891       -54.28892        0.4521877        105.5827
4.7624                 0.4504559        105.2627         0.271015       -55.68207        0.2710149       -55.68205        0.4504574        105.2628
4.7638                 0.4488284        104.9516        0.2662932       -57.09374         0.266293       -57.09371        0.4488299        104.9517
4.7652                 0.4473076         104.648        0.2615249       -58.52388        0.2615248       -58.52386        0.4473093        104.6481
4.7666                 0.4458967        104.3506        0.2567119       -59.97246        0.2567117       -59.97243        0.4458984        104.3507
4.768                  0.4445977        104.0581         0.251856       -61.43944        0.2518559        -61.4394        0.4445995        104.0582
4.7694                 0.4434118         103.769        0.2469599       -62.92479        0.2469598       -62.92475        0.4434136        103.7691
4.7708                 0.4423392        103.4821        0.2420265       -64.42851        0.2420264       -64.42847        0.4423411        103.4822
4.7722                 0.4413791        103.1958        0.2370591       -65.95066         0.237059       -65.95061        0.4413811        103.1958
4.7736                 0.4405302        102.9088        0.2320613       -67.49126        0.2320612       -67.49122        0.4405321        102.9088
4.775                  0.4397896        102.6195        0.2270371       -69.05048         0.227037       -69.05043        0.4397915        102.6195
4.7764                 0.4391541        102.3268        0.2219909       -70.62847        0.2219908       -70.62841         0.439156        102.3268
4.7778                 0.4386195        102.0293        0.2169273       -72.22545        0.2169272        -72.2254        0.4386213        102.0292
4.7792                 0.4381806        101.7257        0.2118512       -73.84175        0.2118512       -73.84169        0.4381824        101.7256
4.7806                 0.4378319        101.4148        0.2067678       -75.47775        0.2067678       -75.47769        0.4378337        101.4148
4.782                  0.4375669        101.0957        0.2016825       -77.13392        0.2016825       -77.13387        0.4375686        101.0956
4.7834                 0.4373787        100.7672        0.1966008       -78.81084        0.1966008       -78.81078        0.4373804        100.7671
4.7848                 0.4372599        100.4285        0.1915285        -80.5092        0.1915285       -80.50913        0.4372614        100.4284
4.7862                 0.4372026        100.0788        0.1864714       -82.22981        0.1864714       -82.22976         0.437204        100.0787
4.7876                 0.4371987        99.71737        0.1814355        -83.9736        0.1814355       -83.97355        0.4372001        99.71728
4.789                  0.4372396        99.34368         0.176427       -85.74168         0.176427       -85.74162        0.4372409        99.34356
4.7904                  0.437317        98.95718         0.171452       -87.53526         0.171452       -87.53521        0.4373181        98.95706
4.7918                  0.437422        98.55756        0.1665168       -89.35578        0.1665168       -89.35571         0.437423        98.55742
4.7932                  0.437546        98.14453        0.1616276       -91.20479        0.1616276       -91.20473        0.4375469        98.14441
4.7946                 0.4376803        97.71798        0.1567906        -93.0841        0.1567907       -93.08406        0.4376812        97.71783
4.796                  0.4378165        97.27775        0.1520124        -94.9957        0.1520124       -94.99564        0.4378173        97.27764
4.7974                 0.4379462        96.82392        0.1472991       -96.94175        0.1472991        -96.9417        0.4379469        96.82381
4.7988                 0.4380613        96.35661         0.142657       -98.92473        0.1426571       -98.92469        0.4380619        96.35647
4.8002                 0.4381543          95.876        0.1380925       -100.9472        0.1380926       -100.9472        0.4381548        95.87589
4.8016                 0.4382175        95.38236        0.1336119       -103.0122         0.133612       -103.0122        0.4382179        95.38227
4.803                   0.438244        94.87601        0.1292215       -105.1228        0.1292216       -105.1227        0.4382444         94.8759
4.8044                 0.4382273        94.35738        0.1249277       -107.2823        0.1249277       -107.2823        0.4382275        94.35727
4.8058                 0.4381611        93.82684        0.1207366       -109.4944        0.1207367       -109.4944        0.4381613        93.82675
4.8072                 0.4380398        93.28492        0.1166548       -111.7628        0.1166549       -111.7628          0.43804        93.28484
4.8086                 0.4378584         92.7322        0.1126885       -114.0916        0.1126886       -114.0916        0.4378585        92.73211
4.81                    0.437612        92.16913        0.1088442       -116.4848        0.1088443       -116.4848        0.4376121        92.16908
4.8114                 0.4372965        91.59639        0.1051284       -118.9467        0.1051285       -118.9467        0.4372966        91.59634
4.8128                 0.4369084        91.01453        0.1015477       -121.4816        0.1015478       -121.4816        0.4369085        91.01447
4.8142                 0.4364445        90.42417       0.09810874       -124.0934       0.09810881       -124.0934        0.4364446        90.42413
4.8156                 0.4359023        89.82597       0.09481812       -126.7862       0.09481819       -126.7862        0.4359023        89.82594
4.817                  0.4352795        89.22052       0.09168265       -129.5634       0.09168272       -129.5634        0.4352795         89.2205
4.8184                 0.4345746         88.6085       0.08870914       -132.4281       0.08870919       -132.4281        0.4345746        88.60847
4.8198                 0.4337864        87.99048       0.08590433       -135.3824       0.08590438       -135.3825        0.4337865        87.99045
4.8212                 0.4329143        87.36709       0.08327495       -138.4277       0.08327501       -138.4278        0.4329143        87.36708
4.8226                 0.4319579        86.73894       0.08082756        -141.564       0.08082761        -141.564         0.431958        86.73894
4.824                  0.4309175        86.10662       0.07856841       -144.7898       0.07856846       -144.7898        0.4309176        86.10663
4.8254                 0.4297934        85.47066       0.07650342       -148.1019       0.07650345       -148.1019        0.4297935        85.47067
4.8268                 0.4285866        84.83164       0.07463788       -151.4952       0.07463791       -151.4952        0.4285868        84.83164
4.8282                 0.4272983        84.19003       0.07297641       -154.9626       0.07297645       -154.9626        0.4272984        84.19005
4.8296                 0.4259299        83.54635       0.07152271       -158.4947       0.07152274       -158.4948        0.4259301        83.54636
4.831                  0.4244831        82.90105       0.07027939       -162.0804       0.07027942       -162.0804        0.4244833        82.90106
4.8324                   0.42296        82.25453       0.06924779       -165.7062       0.06924781       -165.7063        0.4229602        82.25456
4.8338                 0.4213627        81.60724       0.06842786       -169.3574       0.06842788       -169.3575        0.4213629        81.60726
4.8352                 0.4196936        80.95949        0.0678181       -173.0181       0.06781812       -173.0182        0.4196938        80.95952
4.8366                 0.4179551        80.31164       0.06741547       -176.6717       0.06741548       -176.6717        0.4179553        80.31167
4.838                  0.4161497        79.66399       0.06721542        179.6986       0.06721544        179.6985          0.41615          79.664
4.8394                 0.4142803        79.01677       0.06721207        176.1087       0.06721209        176.1086        0.4142806        79.01678
4.8408                 0.4123496        78.37022       0.06739821        172.5738       0.06739823        172.5738        0.4123498        78.37023
4.8422                 0.4103602        77.72452       0.06776562        169.1075       0.06776563        169.1074        0.4103604        77.72454
4.8436                 0.4083148        77.07986       0.06830519        165.7214        0.0683052        165.7213        0.4083151        77.07987
4.845                  0.4062163        76.43634       0.06900723        162.4252       0.06900725        162.4251        0.4062166        76.43634
4.8464                 0.4040672        75.79407       0.06986169        159.2264       0.06986172        159.2263        0.4040675        75.79408
4.8478                 0.4018703        75.15309       0.07085833        156.1305       0.07085837        156.1304        0.4018706         75.1531
4.8492                 0.3996279        74.51347       0.07198698        153.1408         0.071987        153.1407        0.3996282        74.51348
4.8506                 0.3973426        73.87521       0.07323763         150.259       0.07323766         150.259        0.3973428        73.87521
4.852                  0.3950165        73.23827       0.07460065        147.4852       0.07460068        147.4851        0.3950167        73.23826
4.8534                 0.3926518        72.60264       0.07606685        144.8181       0.07606688         144.818         0.392652        72.60264
4.8548                 0.3902506        71.96822       0.07762746        142.2553       0.07762749        142.2553        0.3902508        71.96822
4.8562                 0.3878146        71.33498       0.07927436        139.7939       0.07927439        139.7939        0.3878148        71.33498
4.8576                 0.3853457        70.70277       0.08099989        137.4299       0.08099993        137.4299        0.3853458        70.70278
4.859                  0.3828452        70.07153       0.08279704        135.1592       0.08279709        135.1592        0.3828453        70.07153
4.8604                 0.3803147        69.44108       0.08465929        132.9774       0.08465935        132.9774        0.3803147        69.44109
4.8618                 0.3777552        68.81134       0.08658068        130.8797       0.08658073        130.8797        0.3777552        68.81136
4.8632                 0.3751678        68.18214       0.08855572        128.8616       0.08855579        128.8616        0.3751678        68.18214
4.8646                 0.3725534        67.55332       0.09057945        126.9183       0.09057951        126.9183        0.3725534        67.55334
4.866                  0.3699127        66.92475       0.09264727        125.0455       0.09264735        125.0455        0.3699127        66.92477
4.8674                 0.3672464        66.29629       0.09475507        123.2386       0.09475513        123.2386        0.3672464         66.2963
4.8688                 0.3645549        65.66775       0.09689901        121.4935       0.09689908        121.4935        0.3645548        65.66777
4.8702                 0.3618383        65.03902       0.09907568        119.8062       0.09907575        119.8062        0.3618383        65.03904
4.8716                 0.3590971        64.40995        0.1012819        118.1729         0.101282        118.1728        0.3590971        64.40998