! TOUCHSTONE file generated by CST MICROWAVE STUDIO
! Date and time: Sun Dec  1 17:17:02 2024
! Project name: test_tuning.cst
! Parameters = {airCoaxOuterDiameter=3; chamferAngle=45; chamferWidth=24; connectorLength=10; drillingHoleDiameter=4.1; feedLength=60; flareDiameter=130; flareLength=70; gratingDistance=0; gratingGap=1.90274; outletLength=30; polarizerLength=96; probe1Diameter=1.3; probe1Distance=14; probe1Length=12; probe2Diameter=1.3; probe2Distance=0; probe2Length=12; probeLength=12; smaInnerDiameter=1.3; smaOuterDiameter=4.1; transitionCoefficient=1.33; waveguideFeedLength=30; waveguideSide=50; waveguideThickness=3; wireCount=25; wireDiameter=1.17699}
! Header version: 2024
! Port assignment regex: !\s*Touchstone port\s*([0-9]+)\s*=\s*(CST MWS port|CST DES external port|CST DES block port)\s*(.+)\s* \(\"(.*)\"\)(\s*mode\s*([0-9]+))?.*
! Touchstone port assignment:
! Touchstone port 1 = CST MWS port 1 ("Input1")
! Touchstone port 2 = CST MWS port 2 ("Input2")
# GHz S MA R 50
4.6                    0.2271099       -164.0739        0.6553435        69.62006        0.6553437        69.62008          0.22711        -164.074
4.6014                 0.2341613       -165.0455        0.6568895         68.6659        0.6568898         68.6659        0.2341614       -165.0456
4.6028                   0.24122       -166.0168        0.6583392        67.70641        0.6583393        67.70643        0.2412203       -166.0169
4.6042                 0.2482837       -166.9886        0.6596906        66.74173        0.6596909        66.74175        0.2482839       -166.9887
4.6056                 0.2553492       -167.9615        0.6609421          65.772        0.6609424        65.77202        0.2553495       -167.9616
4.607                  0.2624133       -168.9361        0.6620922        64.79735        0.6620926        64.79735        0.2624136       -168.9362
4.6084                 0.2694722       -169.9131        0.6631394        63.81788        0.6631398         63.8179        0.2694726       -169.9132
4.6098                 0.2765218       -170.8929        0.6640824        62.83374        0.6640828        62.83375        0.2765222        -170.893
4.6112                 0.2835575        -171.876        0.6649199        61.84504        0.6649203        61.84504        0.2835579       -171.8761
4.6126                 0.2905743       -172.8626        0.6656507        60.85189        0.6656511        60.85189        0.2905747       -172.8627
4.614                  0.2975668        -173.853         0.666274        59.85439        0.6662743        59.85441        0.2975672       -173.8531
4.6154                 0.3045294       -174.8475        0.6667886        58.85268         0.666789        58.85268        0.3045299       -174.8476
4.6168                 0.3114562        -175.846        0.6671937        57.84682        0.6671941        57.84684        0.3114567       -175.8461
4.6182                  0.318341       -176.8487        0.6674883        56.83693        0.6674888        56.83694        0.3183415       -176.8488
4.6196                 0.3251774       -177.8554        0.6676718        55.82309        0.6676722        55.82309        0.3251779       -177.8555
4.621                  0.3319591       -178.8661         0.667743        54.80538        0.6677435        54.80538        0.3319596       -178.8662
4.6224                 0.3386793       -179.8805        0.6677014        53.78387        0.6677018        53.78389        0.3386797       -179.8806
4.6238                 0.3453316        179.1017        0.6675459        52.75869        0.6675464        52.75869        0.3453321        179.1016
4.6252                 0.3519096        178.0806        0.6672759        51.72988        0.6672764        51.72988          0.35191        178.0805
4.6266                 0.3584068        177.0567        0.6668905        50.69752         0.666891        50.69751        0.3584073        177.0566
4.628                  0.3648174        176.0304        0.6663889        49.66172        0.6663894        49.66172        0.3648178        176.0303
4.6294                 0.3711353        175.0021        0.6657703        48.62256        0.6657707        48.62255        0.3711357         175.002
4.6308                  0.377355        173.9723        0.6650338        47.58013        0.6650342        47.58013        0.3773554        173.9722
4.6322                 0.3834712        172.9414        0.6641787        46.53454        0.6641791        46.53453        0.3834716        172.9413
4.6336                 0.3894791        171.9099        0.6632044        45.48588        0.6632048        45.48588        0.3894795        171.9098
4.635                  0.3953743        170.8783          0.66211        44.43429        0.6621104        44.43428        0.3953747        170.8782
4.6364                 0.4011528        169.8471        0.6608951        43.37987        0.6608955        43.37987        0.4011531         169.847
4.6378                  0.406811        168.8167        0.6595592        42.32278        0.6595596        42.32277        0.4068113        168.8166
4.6392                 0.4123458        167.7877         0.658102        41.26313        0.6581024        41.26312        0.4123461        167.7875
4.6406                 0.4177545        166.7604        0.6565231        40.20111        0.6565236        40.20109        0.4177548        166.7602
4.642                   0.423035        165.7352        0.6548227        39.13686        0.6548232        39.13684        0.4230351        165.7351
4.6434                 0.4281853        164.7125        0.6530009        38.07054        0.6530013        38.07052        0.4281854        164.7124
4.6448                  0.433204        163.6928         0.651058        37.00234        0.6510583        37.00232        0.4332041        163.6927
4.6462                   0.43809        162.6762        0.6489945        35.93243        0.6489949        35.93241        0.4380901        162.6761
4.6476                 0.4428426         161.663        0.6468114        34.86099        0.6468118        34.86097        0.4428426        161.6629
4.649                  0.4474611        160.6535        0.6445097        33.78821          0.64451        33.78819        0.4474611        160.6535
4.6504                 0.4519453        159.6479        0.6420905        32.71427        0.6420909        32.71425        0.4519453        159.6478
4.6518                 0.4562949        158.6463        0.6395558        31.63935        0.6395561        31.63933        0.4562948        158.6462
4.6532                 0.4605098        157.6488        0.6369071        30.56362        0.6369074        30.56359        0.4605097        157.6487
4.6546                 0.4645901        156.6555        0.6341465        29.48722        0.6341468         29.4872        0.4645901        156.6554
4.656                  0.4685357        155.6665        0.6312764        28.41033        0.6312766        28.41031        0.4685357        155.6665
4.6574                 0.4723465        154.6818        0.6282992        27.33306        0.6282995        27.33304        0.4723465        154.6817
4.6588                 0.4760223        153.7014        0.6252177        26.25553         0.625218        26.25551        0.4760223        153.7014
4.6602                 0.4795629        152.7254        0.6220348        25.17783        0.6220351         25.1778        0.4795628        152.7254
4.6616                 0.4829677        151.7537        0.6187535        24.10003        0.6187537        24.10001        0.4829676        151.7536
4.663                   0.486236        150.7862        0.6153767        23.02216         0.615377        23.02214         0.486236        150.7862
4.6644                 0.4893671        149.8231        0.6119077        21.94424         0.611908        21.94422         0.489367        149.8231
4.6658                 0.4923599        148.8644        0.6083496        20.86625          0.60835        20.86622        0.4923599        148.8643
4.6672                  0.495213        147.9099        0.6047057        19.78812         0.604706        19.78809         0.495213        147.9099
4.6686                 0.4979252        146.9599        0.6009788        18.70978         0.600979        18.70976        0.4979252        146.9599
4.67                   0.5004948        146.0144        0.5971718        17.63111         0.597172        17.63108        0.5004948        146.0143
4.6714                 0.5029201        145.0734        0.5932875        16.55194        0.5932877        16.55192        0.5029202        145.0734
4.6728                 0.5051994        144.1373        0.5893283        15.47211        0.5893286        15.47207        0.5051995        144.1373
4.6742                 0.5073308        143.2061        0.5852965        14.39137        0.5852968        14.39134         0.507331        143.2061
4.6756                 0.5093128        142.2802        0.5811939        13.30949        0.5811941        13.30946         0.509313        142.2802
4.677                  0.5111436        141.3599         0.577022        12.22619        0.5770222        12.22616        0.5111438        141.3599
4.6784                 0.5128218        140.4454        0.5727819        11.14118        0.5727822        11.14115        0.5128221        140.4454
4.6798                 0.5143465        139.5374        0.5684746        10.05414        0.5684747         10.0541        0.5143467        139.5374
4.6812                 0.5157166        138.6361           0.5641        8.964729        0.5641003        8.964692        0.5157169        138.6361
4.6826                  0.516932        137.7421        0.5596582        7.872616        0.5596584        7.872579        0.5169322        137.7421
4.684                  0.5179928         136.856        0.5551486        6.777453        0.5551487        6.777416        0.5179931         136.856
4.6854                 0.5188998        135.9785        0.5505699        5.678899        0.5505701         5.67886        0.5189001        135.9785
4.6868                 0.5196545        135.1101        0.5459209        4.576617         0.545921        4.576579        0.5196548        135.1101
4.6882                 0.5202592        134.2516        0.5411993         3.47029        0.5411994         3.47025        0.5202595        134.2516
4.6896                 0.5207169        133.4036        0.5364033        2.359618        0.5364033        2.359578        0.5207172        133.4036
4.691                  0.5210315        132.5669        0.5315297        1.244332        0.5315297         1.24429        0.5210318        132.5669
4.6924                 0.5212078        131.7422        0.5265759       0.1241948        0.5265759        0.124153        0.5212081        131.7422
4.6938                 0.5212517        130.9303        0.5215386       -1.000986        0.5215385       -1.001029         0.521252        130.9303
4.6952                 0.5211697        130.1317        0.5164142       -2.131358        0.5164142       -2.131401          0.52117        130.1317
4.6966                 0.5209696        129.3473        0.5111993       -3.267015        0.5111993       -3.267058        0.5209699        129.3473
4.698                  0.5206601        128.5776        0.5058902       -4.407992        0.5058901       -4.408036        0.5206604        128.5776
4.6994                 0.5202506        127.8233        0.5004833       -5.554259        0.5004832       -5.554302        0.5202508        127.8233
4.7008                 0.5197514        127.0848        0.4949748       -6.705738        0.4949747       -6.705766        0.5197517        127.0848
4.7022                 0.5191737        126.3625        0.4893615       -7.862222        0.4893615        -7.86225         0.519174        126.3625
4.7036                 0.5185295        125.6569        0.4836402       -9.023468        0.4836401       -9.023521        0.5185297        125.6568
4.705                  0.5178311         124.968        0.4778077       -10.18919        0.4778076       -10.18922        0.5178313         124.968
4.7064                 0.5170912         124.296        0.4718618       -11.35893        0.4718617       -11.35896        0.5170915         124.296
4.7078                 0.5163233        123.6408        0.4658001       -12.53225           0.4658       -12.53228        0.5163236        123.6408
4.7092                 0.5155408        123.0023        0.4596211       -13.70855        0.4596209       -13.70858        0.5155411        123.0023
4.7106                 0.5147571        122.3801        0.4533236       -14.88717        0.4533234       -14.88721        0.5147573        122.3801
4.712                  0.5139853        121.7737        0.4469072       -16.06738         0.446907       -16.06742        0.5139856        121.7737
4.7134                 0.5132385        121.1825        0.4403721       -17.24835        0.4403719       -17.24839        0.5132388        121.1825
4.7148                 0.5125292        120.6056        0.4337192       -18.42916         0.433719        -18.4292        0.5125294        120.6056
4.7162                 0.5118689        120.0421        0.4269501       -19.60883        0.4269499       -19.60886        0.5118692        120.0422
4.7176                 0.5112685        119.4909        0.4200672       -20.78628        0.4200669       -20.78631        0.5112688        119.4909
4.719                  0.5107381        118.9507        0.4130736       -21.96035        0.4130733       -21.96038        0.5107384        118.9507
4.7204                  0.510286          118.42        0.4059732       -23.12983        0.4059729       -23.12985        0.5102863        118.4201
4.7218                 0.5099197        117.8975        0.3987708       -24.29339        0.3987705       -24.29341          0.50992        117.8976
4.7232                  0.509645        117.3815        0.3914718       -25.44967        0.3914715       -25.44969        0.5096452        117.3815
4.7246                 0.5094661        116.8704        0.3840826       -26.59723        0.3840824       -26.59724        0.5094665        116.8704
4.726                   0.509386        116.3624        0.3766102       -27.73455        0.3766099       -27.73456        0.5093863        116.3625
4.7274                 0.5094055        115.8559        0.3690622       -28.86007        0.3690619       -28.86008        0.5094059        115.8559
4.7288                 0.5095241         115.349        0.3614471       -29.97215        0.3614468       -29.97216        0.5095245        115.3491
4.7302                 0.5097395        114.8402        0.3537738       -31.06913        0.3537735       -31.06913        0.5097398        114.8402
4.7316                 0.5100478        114.3276         0.346052       -32.14926        0.3460517       -32.14926        0.5100483        114.3277
4.733                  0.5104437        113.8099        0.3382919       -33.21078        0.3382917       -33.21078        0.5104442        113.8099
4.7344                 0.5109203        113.2854        0.3305042       -34.25189        0.3305038       -34.25188        0.5109207        113.2854
4.7358                 0.5114695        112.7528        0.3226996       -35.27073        0.3226994       -35.27072        0.5114699        112.7528
4.7372                 0.5120817        112.2109        0.3148899       -36.26546        0.3148896       -36.26544        0.5120822        112.2109
4.7386                 0.5127467        111.6586        0.3070865       -37.23417        0.3070862       -37.23415        0.5127472        111.6586
4.74                   0.5134533         111.095        0.2993012         -38.175         0.299301       -38.17497        0.5134537         111.095
4.7414                 0.5141893        110.5191        0.2915462       -39.08604         0.291546       -39.08602        0.5141898        110.5192
4.7428                 0.5149425        109.9306        0.2838333       -39.96544        0.2838331       -39.96542        0.5149429        109.9306
4.7442                    0.5157        109.3289        0.2761747       -40.81135        0.2761745       -40.81132        0.5157004        109.3289
4.7456                 0.5164488        108.7137        0.2685819       -41.62195        0.2685817        -41.6219        0.5164493        108.7137
4.747                  0.5171761        108.0849        0.2610668       -42.39546        0.2610666       -42.39543        0.5171766        108.0849
4.7484                 0.5178692        107.4426        0.2536406       -43.13022        0.2536405       -43.13017        0.5178696        107.4426
4.7498                 0.5185157        106.7869        0.2463144       -43.82459        0.2463143       -43.82455        0.5185161        106.7869
4.7512                 0.5191037        106.1181        0.2390986       -44.47707        0.2390985       -44.47703        0.5191041        106.1181
4.7526                  0.519622        105.4367        0.2320032       -45.08626        0.2320032       -45.08622        0.5196223        105.4368
4.754                  0.5200602        104.7433        0.2250376        -45.6509        0.2250376       -45.65085        0.5200605        104.7433
4.7554                 0.5204083        104.0384        0.2182104       -46.16985        0.2182103       -46.16981        0.5204087        104.0384
4.7568                 0.5206581        103.3228        0.2115294       -46.64219        0.2115294       -46.64214        0.5206584        103.3228
4.7582                 0.5208014        102.5973        0.2050018       -47.06715        0.2050019        -47.0671        0.5208017        102.5973
4.7596                 0.5208318        101.8627        0.1986338       -47.44416        0.1986338       -47.44412        0.5208321        101.8628
4.761                  0.5207435          101.12        0.1924305       -47.77287        0.1924305       -47.77284        0.5207438          101.12
4.7624                 0.5205319          100.37        0.1863961       -48.05316        0.1863962       -48.05311        0.5205322          100.37
4.7638                 0.5201937         99.6137         0.180534       -48.28507        0.1805341       -48.28503         0.520194        99.61373
4.7652                 0.5197265        98.85202        0.1748464       -48.46894        0.1748465        -48.4689        0.5197267        98.85207
4.7666                 0.5191288        98.08595        0.1693343       -48.60525        0.1693344       -48.60522         0.519129        98.08595
4.768                  0.5184003        97.31634        0.1639979       -48.69474         0.163998       -48.69471        0.5184005        97.31634
4.7694                 0.5175417         96.5441        0.1588364       -48.73827        0.1588365       -48.73825        0.5175419         96.5441
4.7708                 0.5165544         95.7701        0.1538478        -48.7369        0.1538479       -48.73689        0.5165546        95.77012
4.7722                 0.5154408        94.99515        0.1490295       -48.69179        0.1490296       -48.69178         0.515441        94.99515
4.7736                 0.5142038        94.21996        0.1443778       -48.60417        0.1443779       -48.60417        0.5142039        94.21999
4.775                  0.5128472        93.44532        0.1398883       -48.47532        0.1398884       -48.47532        0.5128472        93.44535
4.7764                  0.511375        92.67181         0.135556       -48.30649        0.1355561        -48.3065        0.5113752        92.67183
4.7778                 0.5097923        91.90002        0.1313754       -48.09887        0.1313755       -48.09888        0.5097924        91.90005
4.7792                 0.5081038        91.13046        0.1273405       -47.85352        0.1273405       -47.85354         0.508104        91.13049
4.7806                 0.5063152        90.36358        0.1234448       -47.57132        0.1234449       -47.57133        0.5063153        90.36361
4.782                  0.5044318        89.59967        0.1196821       -47.25291        0.1196821       -47.25294        0.5044319         89.5997
4.7834                 0.5024592         88.8391        0.1160456       -46.89868        0.1160456       -46.89871        0.5024594        88.83916
4.7848                 0.5004033        88.08209        0.1125289       -46.50864        0.1125289       -46.50868        0.5004033        88.08212
4.7862                 0.4982693        87.32873        0.1091258       -46.08249        0.1091258       -46.08252        0.4982694        87.32876
4.7876                 0.4960629        86.57918        0.1058304       -45.61947        0.1058304        -45.6195        0.4960629        86.57921
4.789                   0.493789         85.8334        0.1026371       -45.11843        0.1026371       -45.11846        0.4937891        85.83343
4.7904                 0.4914528        85.09144       0.09954098       -44.57778       0.09954095        -44.5778        0.4914528        85.09147
4.7918                 0.4890587        84.35318        0.0965377       -43.99547       0.09653765        -43.9955        0.4890588        84.35323
4.7932                 0.4866111        83.61853       0.09362354       -43.36904       0.09362349       -43.36906        0.4866112        83.61856
4.7946                 0.4841138        82.88735       0.09079558       -42.69558       0.09079552       -42.69559        0.4841138        82.88738
4.796                  0.4815701        82.15941       0.08805161       -41.97182       0.08805155       -41.97183        0.4815702        82.15947
4.7974                 0.4789833        81.43454       0.08539026       -41.19415       0.08539019       -41.19415        0.4789834        81.43458
4.7988                 0.4763559        80.71252       0.08281094       -40.35865       0.08281087       -40.35864         0.476356        80.71255
4.8002                 0.4736901         79.9931       0.08031384       -39.46123       0.08031377       -39.46121        0.4736903        79.99314
4.8016                 0.4709881        79.27605       0.07789992       -38.49769       0.07789986       -38.49765        0.4709881         79.2761
4.803                  0.4682511        78.56115       0.07557088       -37.46377       0.07557082       -37.46374         0.468251         78.5612
4.8044                 0.4654803        77.84819       0.07332904       -36.35542       0.07332899       -36.35537        0.4654804        77.84823
4.8058                 0.4626768        77.13695       0.07117735       -35.16881       0.07117731       -35.16874        0.4626769        77.13699
4.8072                 0.4598414        76.42724       0.06911922       -33.90056        0.0691192       -33.90048        0.4598414        76.42728
4.8086                 0.4569744        75.71889       0.06715851       -32.54792       0.06715849       -32.54784        0.4569745        75.71893
4.81                   0.4540764        75.01176       0.06529928       -31.10896       0.06529928       -31.10887        0.4540764         75.0118
4.8114                 0.4511475         74.3057       0.06354578       -29.58275        0.0635458       -29.58265        0.4511476        74.30576
4.8128                 0.4481881        73.60066       0.06190222       -27.96954       0.06190226       -27.96944        0.4481882        73.60069
4.8142                 0.4451984        72.89651       0.06037267       -26.27098       0.06037272       -26.27088        0.4451985        72.89656
4.8156                 0.4421788        72.19323       0.05896083        -24.4902        0.0589609        -24.4901        0.4421789        72.19328
4.817                  0.4391294        71.49078       0.05766995       -22.63194       0.05767004       -22.63184        0.4391296        71.49083
4.8184                 0.4360508        70.78915        0.0565026       -20.70254       0.05650271       -20.70245        0.4360509         70.7892
4.8198                 0.4329435        70.08834       0.05546061        -18.7099       0.05546073       -18.70982        0.4329437        70.08838
4.8212                 0.4298083        69.38834       0.05454486       -16.66334       0.05454499       -16.66328        0.4298084        69.38838
4.8226                  0.426646        68.68917        0.0537553       -14.57339       0.05375544       -14.57335        0.4266461        68.68922
4.824                  0.4234575        67.99087       0.05309084       -12.45149       0.05309099       -12.45147        0.4234576        67.99092
4.8254                  0.420244        67.29343        0.0525494        -10.3096       0.05254954        -10.3096        0.4202441        67.29349
4.8268                 0.4170069        66.59687       0.05212788       -8.159855       0.05212804       -8.159876        0.4170069        66.59693
4.8282                 0.4137474        65.90117       0.05182239       -6.014148       0.05182254       -6.014194        0.4137475        65.90122
4.8296                 0.4104672         65.2063        0.0516282       -3.883781       0.05162834        -3.88385        0.4104673        65.20635
4.831                  0.4071678        64.51222       0.05154003        -1.77914       0.05154017       -1.779229        0.4071679        64.51227
4.8324                 0.4038509        63.81885       0.05155219       0.2905484       0.05155231       0.2904397         0.403851        63.81891
4.8338                 0.4005182        63.12611       0.05165868        2.317369       0.05165879        2.317244        0.4005183        63.12616
4.8352                 0.3971713        62.43383       0.05185348          4.2948       0.05185358        4.294661        0.3971714        62.43389
4.8366                 0.3938118        61.74189       0.05213065        6.217706       0.05213073        6.217556        0.3938119        61.74194
4.838                  0.3904414        61.05004       0.05248446        8.082272       0.05248452        8.082114        0.3904415         61.0501
4.8394                 0.3870614         60.3581       0.05290954        9.885879       0.05290957        9.885718        0.3870615        60.35816
4.8408                 0.3836731        59.66577       0.05340092        11.62696       0.05340095        11.62679        0.3836731        59.66583
4.8422                 0.3802775        58.97277       0.05395416        13.30479       0.05395416        13.30463        0.3802776        58.97282
4.8436                 0.3768759        58.27875        0.0545653        14.91939       0.05456529        14.91923        0.3768759         58.2788
4.845                  0.3734685        57.58339       0.05523093        16.47125        0.0552309         16.4711        0.3734686        57.58343
4.8464                 0.3700562        56.88628       0.05594816        17.96125       0.05594811        17.96111        0.3700563        56.88633
4.8478                  0.366639        56.18705       0.05671455        19.39049       0.05671449        19.39037        0.3666391        56.18711
4.8492                 0.3632171        55.48528       0.05752815        20.76021       0.05752808         20.7601        0.3632171        55.48533
4.8506                 0.3597899        54.78055       0.05838734        22.07164       0.05838726        22.07154          0.35979        54.78061
4.852                  0.3563572        54.07244       0.05929087          23.326       0.05929078        23.32592        0.3563572         54.0725
4.8534                 0.3529181        53.36052       0.06023771        24.52442       0.06023761        24.52434        0.3529181        53.36057
4.8548                 0.3494718        52.64438       0.06122705         25.6679       0.06122695        25.66784        0.3494718        52.64442
4.8562                 0.3460171        51.92359       0.06225819        26.75736       0.06225809        26.75731         0.346017        51.92364
4.8576                 0.3425527        51.19777       0.06333052        27.79359       0.06333042        27.79355        0.3425526        51.19782
4.859                  0.3390771        50.46654       0.06444344        28.77729       0.06444333        28.77727        0.3390771        50.46658
4.8604                  0.335589        49.72953       0.06559632         29.7091       0.06559621        29.70908        0.3355889        49.72957
4.8618                 0.3320866        48.98643       0.06678847        30.58959       0.06678838        30.58958        0.3320865        48.98647
4.8632                 0.3285684         48.2369       0.06801913        31.41934       0.06801903        31.41934        0.3285682        48.23694
4.8646                 0.3250327        47.48067       0.06928739        32.19893        0.0692873        32.19894        0.3250325        47.48072
4.866                  0.3214779         46.7175       0.07059226          32.929       0.07059218        32.92901        0.3214777        46.71754
4.8674                 0.3179025        45.94713       0.07193261        33.61023       0.07193254        33.61025        0.3179023        45.94717
4.8688                  0.314305        45.16935        0.0733072         34.2434       0.07330713        34.24341        0.3143049         45.1694
4.8702                 0.3106842        44.38398       0.07471471        34.82937       0.07471464        34.82939        0.3106841        44.38403
4.8716                 0.3070388        43.59084       0.07615369        35.36913       0.07615363        35.36915        0.3070387        43.59089