! TOUCHSTONE file generated by CST MICROWAVE STUDIO
! Date and time: Sun Dec  1 17:16:53 2024
! Project name: test_tuning.cst
! Parameters = {airCoaxOuterDiameter=3; chamferAngle=45; chamferWidth=24; connectorLength=10; drillingHoleDiameter=4.1; feedLength=60; flareDiameter=130; flareLength=70; gratingDistance=0; gratingGap=1.90274; outletLength=30; polarizerLength=124; probe1Diameter=1.3; probe1Distance=14; probe1Length=12; probe2Diameter=1.3; probe2Distance=0; probe2Length=12; probeLength=12; smaInnerDiameter=1.3; smaOuterDiameter=4.1; transitionCoefficient=1.33; waveguideFeedLength=30; waveguideSide=50; waveguideThickness=3; wireCount=25; wireDiameter=1.17699}
! Header version: 2024
! Port assignment regex: !\s*Touchstone port\s*([0-9]+)\s*=\s*(CST MWS port|CST DES external port|CST DES block port)\s*(.+)\s* \(\"(.*)\"\)(\s*mode\s*([0-9]+))?.*
! Touchstone port assignment:
! Touchstone port 1 = CST MWS port 1 ("Input1")
! Touchstone port 2 = CST MWS port 2 ("Input2")
# GHz S MA R 50
4.6                    0.2242222       -150.8991        0.5942929        62.19896         0.594293        62.19893        0.2242227        -150.899
4.6014                 0.2308738       -151.9507        0.5957729        61.38438         0.595773        61.38435        0.2308745       -151.9506
4.6028                 0.2375916       -153.0036        0.5972361        60.55397        0.5972362        60.55394        0.2375924       -153.0036
4.6042                 0.2443655       -154.0588        0.5986686        59.70733        0.5986685         59.7073        0.2443664       -154.0588
4.6056                 0.2511853       -155.1168        0.6000558        58.84423        0.6000557         58.8442        0.2511863       -155.1169
4.607                  0.2580405        -156.178        0.6013833        57.96456        0.6013831        57.96453        0.2580416       -156.1781
4.6084                 0.2649206       -157.2422        0.6026363        57.06838         0.602636        57.06836        0.2649217       -157.2423
4.6098                 0.2718151       -158.3093        0.6038003        56.15585           0.6038        56.15584        0.2718163       -158.3094
4.6112                 0.2787142       -159.3787        0.6048612        55.22727        0.6048608        55.22726        0.2787154       -159.3788
4.6126                 0.2856081       -160.4498         0.605805        54.28307        0.6058047        54.28305        0.2856094       -160.4499
4.614                   0.292488       -161.5218        0.6066188        53.32375        0.6066183        53.32375        0.2924893        -161.522
4.6154                 0.2993457        -162.594        0.6072899        52.34997        0.6072895        52.34996         0.299347       -162.5941
4.6168                 0.3061739       -163.6652        0.6078068        51.36241        0.6078064        51.36241        0.3061752       -163.6655
4.6182                 0.3129662       -164.7348        0.6081587        50.36189        0.6081583        50.36189        0.3129675        -164.735
4.6196                 0.3197173       -165.8016        0.6083362        49.34924        0.6083357        49.34925        0.3197186       -165.8019
4.621                  0.3264231       -166.8649        0.6083305        48.32539          0.60833        48.32541        0.3264242       -166.8651
4.6224                 0.3330803       -167.9236        0.6081341        47.29132        0.6081337        47.29134        0.3330814       -167.9239
4.6238                  0.339687       -168.9771        0.6077408        46.24801        0.6077404        46.24803         0.339688       -168.9773
4.6252                 0.3462424       -170.0246        0.6071455        45.19649        0.6071451        45.19652        0.3462434       -170.0249
4.6266                 0.3527467       -171.0656        0.6063442        44.13781        0.6063438        44.13783        0.3527476       -171.0658
4.628                  0.3592012       -172.0995        0.6053343        43.07301        0.6053339        43.07305        0.3592019       -172.0998
4.6294                 0.3656079       -173.1261        0.6041141        42.00316        0.6041137         42.0032        0.3656086       -173.1264
4.6308                 0.3719701       -174.1452         0.602683         40.9293        0.6026828        40.92934        0.3719707       -174.1454
4.6322                 0.3782913       -175.1566         0.601042        39.85245        0.6010417         39.8525        0.3782918       -175.1569
4.6336                 0.3845761       -176.1606        0.5991924        38.77365        0.5991922        38.77371        0.3845765       -176.1608
4.635                  0.3908291       -177.1573         0.597137        37.69387        0.5971368        37.69393        0.3908294       -177.1575
4.6364                 0.3970553       -178.1472        0.5948793        36.61407        0.5948792        36.61412        0.3970556       -178.1474
4.6378                   0.40326       -179.1308        0.5924238        35.53516        0.5924237        35.53522        0.4032602        -179.131
4.6392                 0.4094481        179.8913        0.5897753        34.45803        0.5897753        34.45808        0.4094483        179.8911
4.6406                 0.4156244        178.9181          0.58694        33.38351        0.5869399        33.38357        0.4156246        178.9179
4.642                  0.4217933        177.9489         0.583924        32.31239        0.5839241        32.31244        0.4217934        177.9487
4.6434                 0.4279585        176.9825        0.5807343         31.2454        0.5807344        31.24546        0.4279585        176.9824
4.6448                 0.4341228         176.018        0.5773783        30.18325        0.5773784        30.18331        0.4341228        176.0179
4.6462                 0.4402883        175.0542        0.5738636        29.12657        0.5738638        29.12663        0.4402884        175.0541
4.6476                 0.4464561        174.0899        0.5701981        28.07594        0.5701983          28.076        0.4464562        174.0898
4.649                  0.4526259         173.124        0.5663899         27.0319        0.5663901        27.03196        0.4526259        173.1239
4.6504                 0.4587961        172.1553        0.5624471        25.99493        0.5624474        25.99499        0.4587962        172.1552
4.6518                  0.464964        171.1826        0.5583781        24.96547        0.5583784        24.96552        0.4649641        171.1825
4.6532                 0.4711255        170.2049        0.5541907        23.94391         0.554191        23.94396        0.4711256        170.2048
4.6546                  0.477275        169.2211        0.5498933        22.93058        0.5498937        22.93063        0.4772751         169.221
4.656                  0.4834057        168.2302        0.5454938        21.92579        0.5454941        21.92584        0.4834058        168.2301
4.6574                 0.4895092        167.2315        0.5409997        20.92979            0.541        20.92984        0.4895094        167.2314
4.6588                 0.4955763        166.2243        0.5364184        19.94282         0.536419        19.94287        0.4955764        166.2242
4.6602                 0.5015962        165.2078        0.5317575        18.96507         0.531758        18.96511        0.5015964        165.2077
4.6616                 0.5075572        164.1817        0.5270236        17.99669        0.5270241        17.99673        0.5075574        164.1816
4.663                  0.5134467        163.1456        0.5222234        17.03785         0.522224        17.03789        0.5134471        163.1455
4.6644                 0.5192514        162.0993        0.5173634        16.08866        0.5173639         16.0887        0.5192517        162.0992
4.6658                 0.5249571        161.0428        0.5124494        15.14924          0.51245        15.14927        0.5249575        161.0427
4.6672                 0.5305496        159.9762        0.5074872        14.21969        0.5074878        14.21972          0.53055        159.9761
4.6686                 0.5360139        158.8998        0.5024825        13.30011         0.502483        13.30013        0.5360143        158.8997
4.67                   0.5413352        157.8138        0.4974403        12.39058        0.4974408         12.3906        0.5413356        157.8138
4.6714                 0.5464988        156.7189        0.4923656        11.49121        0.4923661        11.49123        0.5464992        156.7188
4.6728                 0.5514901        155.6157        0.4872633         10.6021        0.4872639        10.60211        0.5514905        155.6156
4.6742                  0.556295        154.5049        0.4821382        9.723338        0.4821387        9.723352        0.5562955        154.5048
4.6756                 0.5609003        153.3874        0.4769946        8.855041        0.4769952        8.855051        0.5609009        153.3873
4.677                  0.5652932        152.2641        0.4718371         7.99732        0.4718376        7.997328        0.5652937         152.264
4.6784                  0.569462        151.1362          0.46667        7.150295        0.4666705        7.150298        0.5694624        151.1361
4.6798                  0.573396        150.0046        0.4614977        6.314084        0.4614983        6.314086        0.5733965        150.0045
4.6812                 0.5770861        148.8707        0.4563246        5.488812        0.4563251        5.488811        0.5770863        148.8706
4.6826                 0.5805239        147.7356         0.451155        4.674602        0.4511555        4.674598        0.5805242        147.7355
4.684                  0.5837029        146.6006        0.4459933        3.871566        0.4459939        3.871559        0.5837033        146.6005
4.6854                 0.5866182         145.467         0.440844        3.079808        0.4408446        3.079798        0.5866183        145.4669
4.6868                 0.5892661        144.3363        0.4357115        2.299417         0.435712        2.299403        0.5892662        144.3362
4.6882                 0.5916449        143.2096        0.4306004        1.530454         0.430601        1.530438        0.5916449        143.2095
4.6896                 0.5937543        142.0884        0.4255153       0.7729563        0.4255158       0.7729363        0.5937545        142.0883
4.691                  0.5955962        140.9739        0.4204605      0.02692021         0.420461       0.0268969        0.5955961        140.9738
4.6924                 0.5971734        139.8675        0.4154408      -0.7076978        0.4154413      -0.7077244        0.5971733        139.8674
4.6938                 0.5984912        138.7703        0.4104605       -1.430994         0.410461       -1.431024        0.5984909        138.7702
4.6952                 0.5995558        137.6837        0.4055241        -2.14312        0.4055246       -2.143154        0.5995555        137.6835
4.6966                 0.6003754        136.6085        0.4006358       -2.844293        0.4006362       -2.844331        0.6003752        136.6084
4.698                  0.6009595        135.5461        0.3957996       -3.534795        0.3958001       -3.534836        0.6009592        135.5459
4.6994                 0.6013192        134.4971        0.3910194       -4.214983        0.3910198       -4.215028        0.6013188        134.4971
4.7008                 0.6014662        133.4627        0.3862984        -4.88529        0.3862988       -4.885338        0.6014658        133.4626
4.7022                 0.6014139        132.4434          0.38164       -5.546233        0.3816403       -5.546288        0.6014135        132.4433
4.7036                 0.6011765        131.4399        0.3770466       -6.198371         0.377047       -6.198425         0.601176        131.4398
4.705                  0.6007686        130.4527        0.3725205       -6.842427        0.3725209       -6.842482        0.6007681        130.4527
4.7064                 0.6002057        129.4822        0.3680633       -7.479062        0.3680637       -7.479116         0.600205        129.4821
4.7078                 0.5995034        128.5285        0.3636761       -8.109112        0.3636764       -8.109194        0.5995028        128.5285
4.7092                 0.5986776        127.5918        0.3593591       -8.733421        0.3593594        -8.73353         0.598677        127.5918
4.7106                 0.5977442         126.672        0.3551123       -9.352943        0.3551126       -9.353017        0.5977434        126.6719
4.712                  0.5967186        125.7688        0.3509347       -9.968571        0.3509349       -9.968645        0.5967179        125.7687
4.7134                 0.5956159        124.8819        0.3468247       -10.58128        0.3468249       -10.58136        0.5956152        124.8818
4.7148                 0.5944505        124.0107          0.34278       -11.19205        0.3427801       -11.19213        0.5944498        124.0107
4.7162                 0.5932357        123.1547        0.3387977       -11.80185        0.3387978       -11.80193         0.593235        123.1546
4.7176                  0.591984         122.313        0.3348743       -12.41161        0.3348744        -12.4117        0.5919833         122.313
4.719                  0.5907065        121.4848        0.3310056       -13.02225        0.3310057       -13.02233        0.5907059        121.4848
4.7204                  0.589413        120.6691        0.3271871        -13.6346        0.3271872       -13.63468        0.5894124        120.6691
4.7218                  0.588112        119.8649        0.3234138       -14.24943        0.3234138       -14.24951        0.5881114        119.8649
4.7232                 0.5868102         119.071          0.31968       -14.86742          0.31968       -14.86751        0.5868096         119.071
4.7246                 0.5855127        118.2862        0.3159803       -15.48916        0.3159802       -15.48925        0.5855123        118.2863
4.726                  0.5842233        117.5095        0.3123085        -16.1151        0.3123085       -16.11518        0.5842228        117.5095
4.7274                 0.5829438        116.7396        0.3086589       -16.74556        0.3086588       -16.74564        0.5829434        116.7396
4.7288                 0.5816747        115.9753        0.3050254       -17.38075        0.3050253       -17.38083        0.5816744        115.9753
4.7302                 0.5804148        115.2155        0.3014022       -18.02072         0.301402       -18.02079        0.5804145        115.2156
4.7316                 0.5791617        114.4592        0.2977838       -18.66536        0.2977836       -18.66543        0.5791614        114.4592
4.733                  0.5779116        113.7054        0.2941647       -19.31443        0.2941645        -19.3145        0.5779113        113.7054
4.7344                 0.5766595        112.9531        0.2905403       -19.96753        0.2905401       -19.96759        0.5766593        112.9531
4.7358                 0.5753996        112.2016        0.2869061       -20.62412        0.2869059       -20.62417        0.5753994        112.2016
4.7372                 0.5741253        111.4502        0.2832584       -21.28349        0.2832581       -21.28355        0.5741252        111.4503
4.7386                 0.5728295        110.6985        0.2795942       -21.94484        0.2795939       -21.94489        0.5728293        110.6985
4.74                   0.5715043        109.9459         0.275911       -22.60721        0.2759107       -22.60726        0.5715043        109.9459
4.7414                 0.5701424        109.1922        0.2722072       -23.26954         0.272207       -23.26958        0.5701424        109.1922
4.7428                 0.5687358        108.4372        0.2684822       -23.93067        0.2684819       -23.93071        0.5687358        108.4373
4.7442                 0.5672772        107.6811        0.2647359       -24.58935        0.2647356       -24.58938        0.5672772        107.6811
4.7456                 0.5657593        106.9238        0.2609692       -25.24427        0.2609689       -25.24429        0.5657595        106.9238
4.747                   0.564176        106.1656        0.2571838       -25.89407        0.2571835       -25.89408        0.5641761        106.1656
4.7484                 0.5625215        105.4069        0.2533822       -26.53736         0.253382       -26.53738        0.5625215         105.407
4.7498                 0.5607909        104.6482        0.2495679       -27.17278        0.2495676       -27.17278         0.560791        104.6482
4.7512                 0.5589804        103.8899        0.2457448       -27.79895        0.2457445       -27.79894        0.5589806        103.8899
4.7526                 0.5570875        103.1327        0.2419176       -28.41456        0.2419173       -28.41455        0.5570876        103.1327
4.754                  0.5551107        102.3771        0.2380916       -29.01838        0.2380914       -29.01836        0.5551108        102.3772
4.7554                 0.5530496         101.624        0.2342727       -29.60926        0.2342725       -29.60925        0.5530497        101.6241
4.7568                 0.5509053         100.874        0.2304672       -30.18623         0.230467       -30.18621        0.5509054        100.8741
4.7582                 0.5486799        100.1278        0.2266815       -30.74843        0.2266813        -30.7484        0.5486799        100.1279
4.7596                 0.5463768        99.38617        0.2229223       -31.29521        0.2229221       -31.29518        0.5463768         99.3862
4.761                  0.5440006        98.64966        0.2191965       -31.82613        0.2191963        -31.8261        0.5440006        98.64969
4.7624                 0.5415567        97.91885        0.2155107       -32.34099        0.2155106       -32.34096        0.5415568        97.91888
4.7638                 0.5390519        97.19433        0.2118714       -32.83984        0.2118713        -32.8398         0.539052        97.19435
4.7652                 0.5364934        96.47648        0.2082847       -33.32301        0.2082846       -33.32296        0.5364934         96.4765
4.7666                 0.5338891        95.76563        0.2047562       -33.79111        0.2047561       -33.79106        0.5338891        95.76565
4.768                  0.5312475        95.06199        0.2012909       -34.24504        0.2012909         -34.245        0.5312477        95.06202
4.7694                 0.5285776        94.36565        0.1978931       -34.68601        0.1978931       -34.68596        0.5285778        94.36568
4.7708                 0.5258881        93.67654        0.1945662       -35.11547        0.1945662       -35.11543        0.5258883        93.67657
4.7722                  0.523188        92.99444        0.1913127       -35.53519        0.1913127       -35.53515        0.5231881        92.99447
4.7736                 0.5204857        92.31907        0.1881339       -35.94714         0.188134        -35.9471        0.5204859         92.3191
4.775                  0.5177895         91.6499        0.1850304       -36.35351        0.1850304       -36.35348        0.5177897        91.64993
4.7764                  0.515107        90.98626        0.1820012       -36.75669        0.1820013       -36.75665        0.5151071        90.98635
4.7778                 0.5124445         90.3275        0.1790447       -37.15915        0.1790448       -37.15911        0.5124447        90.32752
4.7792                 0.5098081        89.67266        0.1761579       -37.56346         0.176158       -37.56343        0.5098082        89.67271
4.7806                  0.507202        89.02075        0.1733368       -37.97222        0.1733369       -37.97219        0.5072023        89.02078
4.782                  0.5046299        88.37071        0.1705765       -38.38798        0.1705766       -38.38795        0.5046301        88.37074
4.7834                 0.5020936        87.72134        0.1678711        -38.8132        0.1678712       -38.81318        0.5020938        87.72137
4.7848                 0.4995937        87.07146        0.1652142       -39.25021        0.1652143       -39.25019         0.499594        87.07149
4.7862                 0.4971295        86.41978        0.1625984       -39.70112        0.1625986       -39.70111        0.4971298        86.41981
4.7876                 0.4946987        85.76506        0.1600163       -40.16781        0.1600164        -40.1678         0.494699        85.76509
4.789                  0.4922977        85.10607        0.1574596       -40.65187        0.1574598       -40.65186        0.4922979        85.10607
4.7904                 0.4899215        84.44156        0.1549204       -41.15456        0.1549205       -41.15456        0.4899218        84.44158
4.7918                 0.4875639        83.77044        0.1523903        -41.6768        0.1523905        -41.6768        0.4875642        83.77047
4.7932                 0.4852175        83.09164        0.1498615       -42.21914        0.1498616       -42.21915        0.4852178        83.09169
4.7946                 0.4828742         82.4042        0.1473262       -42.78173        0.1473264       -42.78175        0.4828744         82.4042
4.796                  0.4805245        81.70728        0.1447773       -43.36437        0.1447774       -43.36439        0.4805248        81.70729
4.7974                 0.4781589        81.00016        0.1422081       -43.96643        0.1422082       -43.96646        0.4781591        81.00017
4.7988                  0.475767         80.2823        0.1396127       -44.58693        0.1396128       -44.58696        0.4757673         80.2823
4.8002                 0.4733383        79.55329         0.136986       -45.22452        0.1369861       -45.22455        0.4733385         79.5533
4.8016                 0.4708623        78.81291        0.1343238       -45.87746        0.1343239       -45.87749        0.4708624        78.81291
4.803                  0.4683284        78.06105        0.1316231       -46.54371        0.1316232       -46.54375        0.4683286        78.06106
4.8044                 0.4657267        77.29782        0.1288815       -47.22092        0.1288816       -47.22096        0.4657269        77.29782
4.8058                 0.4630475        76.52344         0.126098       -47.90645        0.1260981        -47.9065        0.4630476        76.52346
4.8072                  0.460282        75.73832        0.1232726        -48.5974        0.1232727       -48.59746        0.4602821        75.73831
4.8086                 0.4574222        74.94292        0.1204063       -49.29068        0.1204064       -49.29074        0.4574223        74.94292
4.81                   0.4544612        74.13795        0.1175013       -49.98298        0.1175013       -49.98303        0.4544612        74.13795
4.8114                 0.4513929        73.32411        0.1145606       -50.67085        0.1145607       -50.67092        0.4513929        73.32411
4.8128                 0.4482128        72.50229        0.1115885       -51.35079        0.1115886       -51.35086        0.4482128        72.50229
4.8142                 0.4449177        71.67338        0.1085899       -52.01921          0.10859       -52.01929        0.4449176         71.6734
4.8156                 0.4415053        70.83842        0.1055706       -52.67256        0.1055707       -52.67263        0.4415052        70.83842
4.817                  0.4379751        69.99835        0.1025372       -53.30735        0.1025372       -53.30743         0.437975        69.99835
4.8184                 0.4343279        69.15421       0.09949673       -53.92027       0.09949676       -53.92035        0.4343278        69.15421
4.8198                 0.4305657        68.30702       0.09645679       -54.50821        0.0964568       -54.50829        0.4305655        68.30704
4.8212                 0.4266918        67.45777       0.09342523       -55.06844       0.09342524       -55.06852        0.4266917        67.45777
4.8226                 0.4227107        66.60733       0.09041006       -55.59864       0.09041005       -55.59873        0.4227105        66.60736
4.824                  0.4186281        65.75657       0.08741922       -56.09705       0.08741921       -56.09714        0.4186278        65.75659
4.8254                 0.4144503        64.90618       0.08446045       -56.56258       0.08446043       -56.56268        0.4144501        64.90621
4.8268                 0.4101846        64.05676       0.08154103       -56.99497       0.08154099       -56.99508        0.4101844        64.05679
4.8282                 0.4058391        63.20873       0.07866765       -57.39486        0.0786676       -57.39497        0.4058389        63.20877
4.8296                  0.401422        62.36236       0.07584611       -57.76397       0.07584606       -57.76408        0.4014217         62.3624
4.831                  0.3969415         61.5177       0.07308121        -58.1052       0.07308115       -58.10532        0.3969413        61.51774
4.8324                 0.3924064        60.67461       0.07037649       -58.42275       0.07037642       -58.42286        0.3924062        60.67466
4.8338                 0.3878247         59.8327       0.06773413       -58.72216       0.06773404       -58.72227        0.3878245        59.83275
4.8352                 0.3832042        58.99139        0.0651547       -59.01042       0.06515462       -59.01053         0.383204        58.99143
4.8366                 0.3785518        58.14978       0.06263721       -59.29593       0.06263711       -59.29605        0.3785516        58.14984
4.838                  0.3738736        57.30683       0.06017887       -59.58859       0.06017877        -59.5887        0.3738734        57.30689
4.8394                 0.3691744        56.46119       0.05777523       -59.89961       0.05777512       -59.89971        0.3691743        56.46125
4.8408                 0.3644578        55.61129        0.0554201       -60.24159       0.05541999       -60.24169        0.3644577        55.61134
4.8422                  0.359726        54.75536       0.05310577       -60.62837       0.05310565       -60.62846        0.3597259         54.7554
4.8436                 0.3549793        53.89141       0.05082308       -61.07504       0.05082294       -61.07514        0.3549792        53.89146
4.845                  0.3502163         53.0173       0.04856166       -61.59793       0.04856153       -61.59801        0.3502163        53.01734
4.8464                  0.345434         52.1307       0.04631024       -62.21472        0.0463101        -62.2148        0.3454339        52.13075
4.8478                 0.3406272         51.2292       0.04405693       -62.94477       0.04405678       -62.94482        0.3406271        51.22925
4.8492                 0.3357891        50.31027       0.04178955        -63.8095       0.04178941       -63.80955         0.335789        50.31031
4.8506                 0.3309108        49.37137       0.03949609       -64.83341       0.03949595       -64.83346        0.3309108         49.3714
4.852                  0.3259821        48.40987       0.03716506       -66.04536       0.03716491       -66.04539        0.3259821         48.4099
4.8534                 0.3209908        47.42323       0.03478599       -67.48076       0.03478585       -67.48079        0.3209907        47.42327
4.8548                 0.3159231        46.40894       0.03235002       -69.18501       0.03234988       -69.18503         0.315923        46.40897
4.8562                 0.3107644        45.36455       0.02985056       -71.21891       0.02985042       -71.21891        0.3107643        45.36458
4.8576                 0.3054985        44.28775       0.02728434       -73.66755        0.0272842       -73.66755        0.3054984        44.28777
4.859                  0.3001088        43.17635       0.02465291       -76.65538       0.02465276       -76.65537        0.3001086        43.17636
4.8604                 0.2945776        42.02831       0.02196529       -80.37227       0.02196515       -80.37224        0.2945774        42.02832
4.8618                 0.2888873        40.84176       0.01924289        -85.1207       0.01924275       -85.12067        0.2888871        40.84176
4.8632                   0.28302        39.61501       0.01652924       -91.40172        0.0165291       -91.40171        0.2830197        39.61501
4.8646                 0.2769578        38.34656       0.01391049       -100.0647       0.01391036       -100.0647        0.2769576        38.34656
4.866                  0.2706837        37.03507       0.01155827       -112.4954       0.01155814       -112.4955        0.2706834        37.03506
4.8674                 0.2641809        35.67935        0.0098025       -130.4161      0.009802381       -130.4163        0.2641806        35.67934
4.8688                 0.2574338        34.27839       0.00914781       -153.7627      0.009147717       -153.7632        0.2574335        34.27838
4.8702                  0.250428        32.83132      0.009955211       -177.5859      0.009955151       -177.5866        0.2504276         32.8313
4.8716                 0.2431504        31.33731        0.0120444        163.5517       0.01204437        163.5512        0.2431499         31.3373