! TOUCHSTONE file generated by CST MICROWAVE STUDIO
! Date and time: Sun Dec  1 17:17:01 2024
! Project name: test_tuning.cst
! Parameters = {airCoaxOuterDiameter=3; chamferAngle=45; chamferWidth=24; connectorLength=10; drillingHoleDiameter=4.1; feedLength=60; flareDiameter=130; flareLength=70; gratingDistance=0; gratingGap=1.90274; outletLength=30; polarizerLength=92; probe1Diameter=1.3; probe1Distance=14; probe1Length=12; probe2Diameter=1.3; probe2Distance=0; probe2Length=12; probeLength=12; smaInnerDiameter=1.3; smaOuterDiameter=4.1; transitionCoefficient=1.33; waveguideFeedLength=30; waveguideSide=50; waveguideThickness=3; wireCount=25; wireDiameter=1.17699}
! Header version: 2024
! Port assignment regex: !\s*Touchstone port\s*([0-9]+)\s*=\s*(CST MWS port|CST DES external port|CST DES block port)\s*(.+)\s* \(\"(.*)\"\)(\s*mode\s*([0-9]+))?.*
! Touchstone port assignment:
! Touchstone port 1 = CST MWS port 1 ("Input1")
! Touchstone port 2 = CST MWS port 2 ("Input2")
# GHz S MA R 50
4.6                    0.2358312       -161.2116        0.6290769        70.10397        0.6290779        70.10393        0.2358319       -161.2115
4.6014                 0.2430304       -162.2112        0.6309294        69.15404        0.6309302        69.15401         0.243031       -162.2111
4.6028                  0.250242       -163.2118        0.6326804         68.1971        0.6326813        68.19706        0.2502428       -163.2117
4.6042                 0.2574628       -164.2139        0.6343265        67.23335        0.6343276         67.2333        0.2574634       -164.2138
4.6056                 0.2646885       -165.2178        0.6358643        66.26301        0.6358654        66.26294        0.2646892       -165.2178
4.607                  0.2719153       -166.2241        0.6372908        65.28632        0.6372918        65.28627        0.2719159       -166.2242
4.6084                 0.2791386       -167.2331        0.6386029        64.30354        0.6386039        64.30349        0.2791391       -167.2332
4.6098                 0.2863539        -168.245         0.639798        63.31496         0.639799         63.3149        0.2863542       -168.2451
4.6112                 0.2935561       -169.2602        0.6408738        62.32083        0.6408749        62.32076        0.2935564       -169.2603
4.6126                 0.3007401       -170.2788        0.6418285        61.32144        0.6418295        61.32135        0.3007402       -170.2789
4.614                  0.3079006       -171.3009        0.6426602        60.31703        0.6426613        60.31695        0.3079005        -171.301
4.6154                 0.3150316       -172.3266        0.6433677        59.30791        0.6433687        59.30783        0.3150314       -172.3267
4.6168                 0.3221276        -173.356        0.6439497        58.29437        0.6439508        58.29427        0.3221272       -173.3561
4.6182                 0.3291824       -174.3891        0.6444056        57.27664        0.6444066        57.27654        0.3291818       -174.3892
4.6196                 0.3361898       -175.4257        0.6447348          56.255        0.6447357        56.25488        0.3361891       -175.4258
4.621                  0.3431437       -176.4658        0.6449369        55.22967        0.6449378        55.22955        0.3431428       -176.4659
4.6224                 0.3500376       -177.5092        0.6450121         54.2009        0.6450128        54.20078        0.3500366       -177.5093
4.6238                 0.3568652       -178.5557        0.6449602        53.16891        0.6449609        53.16878        0.3568641       -178.5557
4.6252                 0.3636201        -179.605        0.6447817        52.13391        0.6447824        52.13377         0.363619       -179.6051
4.6266                 0.3702962         179.343        0.6444771        51.09608        0.6444777        51.09594         0.370295        179.3431
4.628                  0.3768872        178.2889         0.644047        50.05562        0.6440476        50.05547        0.3768859        178.2889
4.6294                 0.3833871        177.2328         0.643492        49.01267        0.6434925        49.01252        0.3833858        177.2329
4.6308                 0.3897901        176.1752        0.6428129        47.96741        0.6428133        47.96726        0.3897889        176.1753
4.6322                 0.3960907        175.1165        0.6420105        46.91995        0.6420107         46.9198        0.3960895        175.1166
4.6336                 0.4022836         174.057        0.6410857        45.87044        0.6410858        45.87028        0.4022824        174.0572
4.635                  0.4083637        172.9972        0.6400393        44.81898        0.6400393        44.81883        0.4083626        172.9974
4.6364                 0.4143265        171.9375        0.6388723         43.7657        0.6388722        43.76555        0.4143254        171.9377
4.6378                 0.4201675        170.8784        0.6375854         42.7107        0.6375851        42.71055        0.4201666        170.8786
4.6392                 0.4258829        169.8203        0.6361796        41.65407        0.6361793        41.65392        0.4258821        169.8205
4.6406                 0.4314691        168.7635        0.6346556        40.59591        0.6346552        40.59576        0.4314686        168.7638
4.642                  0.4369232        167.7086        0.6330144        39.53631        0.6330139        39.53617        0.4369228        167.7088
4.6434                 0.4422422        166.6558        0.6312569        38.47538        0.6312561        38.47525        0.4422419        166.6561
4.6448                 0.4474238        165.6057        0.6293837         37.4132         0.629383        37.41307        0.4474239        165.6059
4.6462                 0.4524662        164.5584        0.6273958        36.34989         0.627395        36.34976        0.4524665        164.5587
4.6476                 0.4573679        163.5144        0.6252941        35.28553        0.6252932        35.28541        0.4573683        163.5147
4.649                  0.4621274         162.474        0.6230796        34.22025        0.6230786        34.22014         0.462128        162.4743
4.6504                  0.466744        161.4375        0.6207531        33.15416        0.6207521        33.15406        0.4667449        161.4377
4.6518                 0.4712171         160.405        0.6183158        32.08738        0.6183147        32.08728        0.4712182        160.4053
4.6532                 0.4755465        159.3769         0.615769        31.02004        0.6157679        31.01996        0.4755477        159.3772
4.6546                 0.4797318        158.3533        0.6131139        29.95227        0.6131126        29.95221        0.4797333        158.3535
4.656                  0.4837734        157.3344        0.6103519        28.88423        0.6103506        28.88417         0.483775        157.3346
4.6574                 0.4876714        156.3203        0.6074846        27.81604        0.6074833        27.81599        0.4876732        156.3205
4.6588                 0.4914261        155.3111        0.6045139        26.74787        0.6045126        26.74782        0.4914281        155.3112
4.6602                 0.4950381        154.3068        0.6014417        25.67984        0.6014403        25.67981        0.4950401         154.307
4.6616                 0.4985075        153.3077        0.5982701        24.61213        0.5982687        24.61211        0.4985097        153.3078
4.663                  0.5018351        152.3136        0.5950014        23.54487        0.5950001        23.54486        0.5018373        152.3137
4.6644                  0.505021        151.3246        0.5916383        22.47819        0.5916371        22.47819        0.5050233        151.3247
4.6658                 0.5080656        150.3407        0.5881836        21.41224        0.5881824        21.41225        0.5080679        150.3407
4.6672                 0.5109691        149.3619          0.58464        20.34712        0.5846388        20.34714        0.5109713        149.3619
4.6686                 0.5137313        148.3881        0.5810107        19.28295        0.5810096        19.28297        0.5137336        148.3881
4.67                   0.5163524        147.4195         0.577299        18.21981         0.577298        18.21984        0.5163547        147.4195
4.6714                 0.5188319        146.4559        0.5735083        17.15776        0.5735074         17.1578        0.5188342        146.4559
4.6728                 0.5211695        145.4974        0.5696421        16.09684        0.5696412        16.09689        0.5211717        145.4974
4.6742                 0.5233646         144.544         0.565704        15.03708        0.5657031        15.03713        0.5233667         144.544
4.6756                 0.5254164        143.5958        0.5616976        13.97845        0.5616968         13.9785        0.5254184        143.5958
4.677                  0.5273241        142.6528        0.5576265        12.92089        0.5576258        12.92096         0.527326        142.6527
4.6784                 0.5290867        141.7151        0.5534945        11.86434        0.5534938        11.86441        0.5290885         141.715
4.6798                 0.5307034        140.7828        0.5493048        10.80866        0.5493042        10.80873         0.530705        140.7827
4.6812                 0.5321729        139.8561         0.545061          9.7537        0.5450605        9.753773        0.5321743         139.856
4.6826                 0.5334941        138.9352        0.5407665        8.699257         0.540766        8.699331        0.5334955        138.9351
4.684                  0.5346665        138.0203        0.5364239        7.645096        0.5364236        7.645171        0.5346676        138.0202
4.6854                 0.5356889        137.1118        0.5320364        6.590939        0.5320361        6.591013          0.53569        137.1117
4.6868                 0.5365608        136.2099        0.5276061        5.536472        0.5276059        5.536545        0.5365618        136.2098
4.6882                 0.5372819        135.3151        0.5231353        4.481347        0.5231352        4.481419        0.5372828         135.315
4.6896                 0.5378522        134.4277        0.5186257        3.425179        0.5186256        3.425249        0.5378528        134.4276
4.691                  0.5382718        133.5482        0.5140787        2.367554        0.5140787        2.367621        0.5382725        133.5481
4.6924                 0.5385418        132.6771        0.5094952        1.308032        0.5094952        1.308096        0.5385423        132.6771
4.6938                 0.5386633         131.815        0.5048754       0.2461501        0.5048755       0.2462107        0.5386637         131.815
4.6952                 0.5386383        130.9624        0.5002197      -0.8185708        0.5002197      -0.8185139        0.5386386        130.9624
4.6966                 0.5384691          130.12        0.4955271       -1.886623        0.4955272        -1.88657        0.5384695          130.12
4.698                  0.5381591        129.2883        0.4907971       -2.958502        0.4907972       -2.958453        0.5381594        129.2883
4.6994                  0.537712         128.468         0.486028       -4.034705        0.4860281       -4.034659        0.5377124         128.468
4.7008                 0.5371323        127.6598        0.4812179       -5.115718        0.4812181       -5.115676        0.5371327        127.6598
4.7022                 0.5364258        126.8643        0.4763647       -6.202023        0.4763648       -6.201969        0.5364263        126.8643
4.7036                 0.5355985        126.0822        0.4714655       -7.294048        0.4714656       -7.294022         0.535599        126.0822
4.705                  0.5346574        125.3141        0.4665173       -8.392235        0.4665175       -8.392208        0.5346578        125.3141
4.7064                 0.5336099        124.5606        0.4615169       -9.497006         0.461517       -9.496952        0.5336106        124.5606
4.7078                 0.5324651        123.8223        0.4564605       -10.60862        0.4564606       -10.60859        0.5324659        123.8223
4.7092                 0.5312322        123.0997        0.4513444       -11.72741        0.4513445       -11.72738         0.531233        123.0998
4.7106                 0.5299208        122.3934        0.4461647       -12.85365        0.4461647       -12.85363        0.5299217        122.3934
4.712                  0.5285419        121.7036        0.4409172        -13.9875        0.4409172       -13.98747        0.5285428        121.7037
4.7134                 0.5271064        121.0308        0.4355981       -15.12906        0.4355981       -15.12904        0.5271075        121.0309
4.7148                 0.5256262        120.3751        0.4302034       -16.27839        0.4302034       -16.27837        0.5256274        120.3752
4.7162                 0.5241132        119.7367        0.4247293       -17.43546        0.4247292       -17.43544        0.5241145        119.7368
4.7176                 0.5225797        119.1157        0.4191721       -18.60015         0.419172       -18.60013        0.5225812        119.1157
4.719                  0.5210383        118.5118        0.4135286       -19.77229        0.4135285       -19.77227        0.5210398        118.5119
4.7204                 0.5195015        117.9249        0.4077958       -20.95161        0.4077957       -20.95158        0.5195031        117.9249
4.7218                 0.5179818        117.3546        0.4019711       -22.13775         0.401971       -22.13771        0.5179834        117.3546
4.7232                 0.5164911        116.8004        0.3960524       -23.33027        0.3960522       -23.33023        0.5164928        116.8004
4.7246                 0.5150415        116.2617         0.390038       -24.52865        0.3900378       -24.52862        0.5150433        116.2618
4.726                  0.5136442        115.7377        0.3839269       -25.73231        0.3839268       -25.73226         0.513646        115.7377
4.7274                 0.5123097        115.2275        0.3777187       -26.94052        0.3777185       -26.94048        0.5123114        115.2275
4.7288                 0.5110479        114.7301        0.3714135       -28.15254        0.3714134       -28.15249        0.5110497        114.7301
4.7302                 0.5098676        114.2442        0.3650122        -29.3675        0.3650121       -29.36745        0.5098694        114.2442
4.7316                 0.5087768        113.7687        0.3585163       -30.58447        0.3585162       -30.58441        0.5087785        113.7686
4.733                   0.507782         113.302        0.3519281       -31.80244         0.351928       -31.80237        0.5077837         113.302
4.7344                 0.5068887        112.8429        0.3452504       -33.02032        0.3452504       -33.02025        0.5068903        112.8428
4.7358                  0.506101        112.3897         0.338487       -34.23694         0.338487       -34.23686        0.5061027        112.3896
4.7372                 0.5054217        111.9409        0.3316422       -35.45107        0.3316421         -35.451        0.5054232        111.9408
4.7386                 0.5048521        111.4948        0.3247208       -36.66142        0.3247208       -36.66134        0.5048536        111.4947
4.74                   0.5043921        111.0499        0.3177288       -37.86661        0.3177288       -37.86653        0.5043935        111.0499
4.7414                 0.5040403        110.6046        0.3106722       -39.06523        0.3106723       -39.06514        0.5040417        110.6045
4.7428                 0.5037939        110.1573        0.3035581       -40.25577        0.3035583       -40.25568        0.5037952        110.1572
4.7442                 0.5036488        109.7064        0.2963939       -41.43669        0.2963941        -41.4366        0.5036499        109.7063
4.7456                 0.5035994        109.2507        0.2891877       -42.60639        0.2891878        -42.6063        0.5036005        109.2505
4.747                  0.5036393        108.7885        0.2819477       -43.76324        0.2819479       -43.76316        0.5036403        108.7884
4.7484                  0.503761        108.3188        0.2746829       -44.90553        0.2746831       -44.90544        0.5037619        108.3187
4.7498                 0.5039558        107.8404        0.2674025       -46.03154        0.2674027       -46.03146        0.5039566        107.8403
4.7512                 0.5042144        107.3522         0.260116       -47.13949        0.2601163        -47.1394        0.5042153        107.3521
4.7526                 0.5045269        106.8535        0.2528332       -48.22758        0.2528335       -48.22751        0.5045277        106.8533
4.754                  0.5048827        106.3433        0.2455639         -49.294        0.2455642       -49.29392        0.5048834        106.3432
4.7554                 0.5052708        105.8212        0.2383182       -50.33688        0.2383185       -50.33681        0.5052716        105.8211
4.7568                 0.5056802        105.2866         0.231106       -51.35438        0.2311064       -51.35431        0.5056808        105.2865
4.7582                 0.5060994        104.7392        0.2239374       -52.34463        0.2239379       -52.34457           0.5061        104.7391
4.7596                 0.5065173        104.1789        0.2168223       -53.30576        0.2168228        -53.3057        0.5065178        104.1788
4.761                  0.5069225        103.6055        0.2097704       -54.23592        0.2097708       -54.23588        0.5069231        103.6054
4.7624                 0.5073044        103.0191        0.2027911       -55.13328        0.2027915       -55.13324        0.5073049         103.019
4.7638                 0.5076522        102.4199        0.1958934       -55.99602        0.1958938       -55.99601        0.5076528        102.4198
4.7652                 0.5079562        101.8081        0.1890862       -56.82239        0.1890866       -56.82238        0.5079567         101.808
4.7666                 0.5082065        101.1842        0.1823776       -57.61066         0.182378       -57.61066        0.5082071        101.1841
4.768                  0.5083945        100.5485        0.1757755       -58.35918        0.1757758       -58.35919         0.508395        100.5484
4.7694                 0.5085119        99.90154        0.1692868       -59.06635        0.1692872       -59.06638        0.5085125        99.90148
4.7708                 0.5085513        99.24402        0.1629182       -59.73065        0.1629186       -59.73068         0.508552        99.24396
4.7722                  0.508506        98.57655        0.1566755       -60.35064        0.1566757        -60.3507        0.5085066        98.57646
4.7736                 0.5083702        97.89977        0.1505636       -60.92499        0.1505638       -60.92505        0.5083708        97.89972
4.775                  0.5081386        97.21445        0.1445869       -61.45243        0.1445871       -61.45249        0.5081392        97.21434
4.7764                 0.5078072         96.5213        0.1387489        -61.9318        0.1387491       -61.93187        0.5078078        96.52121
4.7778                 0.5073725        95.82107        0.1330521       -62.36201        0.1330523       -62.36209        0.5073731        95.82101
4.7792                  0.506832        95.11459        0.1274985       -62.74204        0.1274987       -62.74213        0.5068327        95.11448
4.7806                 0.5061839        94.40257         0.122089       -63.07092        0.1220891       -63.07102        0.5061844        94.40248
4.782                   0.505427        93.68577        0.1168237       -63.34772        0.1168238       -63.34781        0.5054275        93.68565
4.7834                  0.504561         92.9649        0.1117021       -63.57144        0.1117021       -63.57155        0.5045615        92.96479
4.7848                 0.5035862        92.24072        0.1067225       -63.74106        0.1067225       -63.74117        0.5035867        92.24064
4.7862                 0.5025037        91.51389         0.101883       -63.85542         0.101883       -63.85552        0.5025041         91.5138
4.7876                 0.5013149        90.78504       0.09718081       -63.91311       0.09718072       -63.91319        0.5013153        90.78496
4.789                   0.500022        90.05484       0.09261243       -63.91243       0.09261231        -63.9125        0.5000223        90.05475
4.7904                 0.4986274        89.32381        0.0881741       -63.85122       0.08817396       -63.85127        0.4986276        89.32372
4.7918                 0.4971341        88.59249       0.08386158       -63.72677       0.08386143       -63.72681        0.4971342        88.59238
4.7932                 0.4955453        87.86134       0.07967038       -63.53558       0.07967021       -63.53562        0.4955454        87.86126
4.7946                 0.4938646        87.13081       0.07559588       -63.27324        0.0755957       -63.27324        0.4938646        87.13073
4.796                  0.4920956        86.40131       0.07163346       -62.93406       0.07163327       -62.93404        0.4920956        86.40123
4.7974                 0.4902425        85.67314       0.06777864       -62.51086       0.06777846        -62.5108        0.4902424        85.67303
4.7988                 0.4883091        84.94659        0.0640273       -61.99454       0.06402712       -61.99447         0.488309        84.94652
4.8002                 0.4862995         84.2219       0.06037578       -61.37371       0.06037561        -61.3736        0.4862994        84.22183
4.8016                 0.4842179        83.49924       0.05682115       -60.63403         0.056821       -60.63387        0.4842177        83.49918
4.803                  0.4820683        82.77877       0.05336141       -59.75759       0.05336128        -59.7574         0.482068        82.77873
4.8044                 0.4798546        82.06061       0.04999578       -58.72202       0.04999566       -58.72181        0.4798543        82.06057
4.8058                 0.4775806         81.3448       0.04672498       -57.49944       0.04672488       -57.49918        0.4775804        81.34476
4.8072                 0.4752501        80.63136       0.04355166       -56.05514        0.0435516       -56.05484        0.4752498        80.63133
4.8086                 0.4728665        79.92029       0.04048089       -54.34602       0.04048086       -54.34568        0.4728662        79.92028
4.81                   0.4704331        79.21153       0.03752081       -52.31872       0.03752081       -52.31834        0.4704328        79.21153
4.8114                  0.467953        78.50505       0.03468339       -49.90783       0.03468344       -49.90742        0.4679527        78.50507
4.8128                 0.4654291        77.80072       0.03198556       -47.03422       0.03198564       -47.03378        0.4654288        77.80075
4.8142                  0.462864        77.09845       0.02945035       -43.60488       0.02945048       -43.60444        0.4628637        77.09849
4.8156                   0.46026        76.39811       0.02710843       -39.51574       0.02710859       -39.51532        0.4602599        76.39815
4.817                  0.4576194        75.69956       0.02499923       -34.66111       0.02499942       -34.66071        0.4576193         75.6996
4.8184                 0.4549441        75.00263       0.02317141         -28.954       0.02317163       -28.95368        0.4549441        75.00269
4.8198                 0.4522358        74.30719       0.02168111       -22.36154       0.02168135       -22.36133        0.4522358        74.30727
4.8212                  0.449496        73.61307       0.02058636       -14.95193       0.02058662       -14.95186        0.4494961        73.61316
4.8226                 0.4467262        72.92012       0.01993687        -6.93399       0.01993712       -6.934087        0.4467263         72.9202
4.824                  0.4439273        72.22815       0.01976097        1.345776        0.0197612        1.345515        0.4439276        72.22823
4.8254                 0.4411006        71.53703       0.02005568        9.471664       0.02005589        9.471267        0.4411009        71.53712
4.8268                 0.4382467         70.8466       0.02078591        17.06732       0.02078608        17.06683        0.4382472        70.84668
4.8282                 0.4353667        70.15672       0.02189358        23.88102        0.0218937        23.88049        0.4353672         70.1568
4.8296                 0.4324611        69.46722       0.02331102        29.80696        0.0233111        29.80643        0.4324617         69.4673
4.831                  0.4295306        68.77798       0.02497235        34.85424       0.02497239        34.85373        0.4295313        68.77806
4.8324                 0.4265756        68.08888       0.02681984        39.09912       0.02681985        39.09866        0.4265764        68.08893
4.8338                 0.4235968        67.39976       0.02880608        42.64546       0.02880606        42.64503        0.4235976        67.39982
4.8352                 0.4205945        66.71056       0.03089351        45.60015       0.03089346        45.59978        0.4205954        66.71061
4.8366                 0.4175692        66.02111       0.03305299        48.06114       0.03305292        48.06081        0.4175702        66.02115
4.838                  0.4145214        65.33133       0.03526217        50.11294       0.03526208        50.11266        0.4145224        65.33137
4.8394                 0.4114514        64.64111       0.03750401         51.8263       0.03750391        51.82606        0.4114525        64.64113
4.8408                 0.4083598        63.95035       0.03976559        53.25947       0.03976548        53.25928        0.4083609        63.95035
4.8422                 0.4052469        63.25893       0.04203716        54.46007       0.04203704        54.45991        0.4052479        63.25891
4.8436                 0.4021132        62.56673       0.04431148        55.46689       0.04431137        55.46674        0.4021142         62.5667
4.845                  0.3989591        61.87365       0.04658327        56.31156       0.04658315        56.31144        0.3989601        61.87362
4.8464                 0.3957851        61.17961       0.04884877        57.01993       0.04884866        57.01983         0.395786        61.17956
4.8478                 0.3925916        60.48444       0.05110552        57.61315        0.0511054        57.61307        0.3925924        60.48438
4.8492                 0.3893789        59.78805       0.05335201        58.10855       0.05335189        58.10849        0.3893798        59.78796
4.8506                 0.3861476        59.09029       0.05558756        58.52041       0.05558745        58.52035        0.3861484        59.09019
4.852                   0.382898        58.39102       0.05781214        58.86042       0.05781203        58.86037        0.3828988        58.39092
4.8534                 0.3796305        57.69011       0.06002623        59.13825       0.06002613        59.13821        0.3796311        57.68999
4.8548                 0.3763454         56.9874       0.06223074        59.36179       0.06223064        59.36176        0.3763459        56.98728
4.8562                 0.3730431        56.28272       0.06442685        59.53758       0.06442674        59.53755        0.3730435        56.28259
4.8576                 0.3697236        55.57589       0.06661597        59.67089       0.06661588        59.67086        0.3697239        55.57577
4.859                  0.3663873        54.86676       0.06879968        59.76606       0.06879958        59.76603        0.3663875        54.86663
4.8604                 0.3630343        54.15512       0.07097957        59.82657       0.07097949        59.82656        0.3630343        54.15499
4.8618                 0.3596646         53.4408       0.07315732        59.85527       0.07315722        59.85526        0.3596646        53.44066
4.8632                 0.3562784        52.72356       0.07533447        59.85439       0.07533437        59.85439        0.3562782        52.72344
4.8646                 0.3528754        52.00322       0.07751253        59.82574       0.07751245        59.82573        0.3528751        52.00311
4.866                  0.3494557        51.27958       0.07969289        59.77071        0.0796928        59.77071        0.3494554        51.27947
4.8674                 0.3460191        50.55241       0.08187674        59.69045       0.08187666        59.69044        0.3460187         50.5523
4.8688                 0.3425654        49.82148       0.08406509        59.58583       0.08406501        59.58582        0.3425649        49.82139
4.8702                 0.3390943        49.08658       0.08625875         59.4576       0.08625865         59.4576        0.3390938         49.0865
4.8716                 0.3356056         48.3475       0.08845831        59.30631       0.08845822        59.30631        0.3356049        48.34744