! TOUCHSTONE file generated by CST MICROWAVE STUDIO
! Date and time: Sun Dec  1 17:16:54 2024
! Project name: test_tuning.cst
! Parameters = {airCoaxOuterDiameter=3; chamferAngle=45; chamferWidth=24; connectorLength=10; drillingHoleDiameter=4.1; feedLength=60; flareDiameter=130; flareLength=70; gratingDistance=0; gratingGap=1.90274; outletLength=30; polarizerLength=128; probe1Diameter=1.3; probe1Distance=14; probe1Length=12; probe2Diameter=1.3; probe2Distance=0; probe2Length=12; probeLength=12; smaInnerDiameter=1.3; smaOuterDiameter=4.1; transitionCoefficient=1.33; waveguideFeedLength=30; waveguideSide=50; waveguideThickness=3; wireCount=25; wireDiameter=1.17699}
! Header version: 2024
! Port assignment regex: !\s*Touchstone port\s*([0-9]+)\s*=\s*(CST MWS port|CST DES external port|CST DES block port)\s*(.+)\s* \(\"(.*)\"\)(\s*mode\s*([0-9]+))?.*
! Touchstone port assignment:
! Touchstone port 1 = CST MWS port 1 ("Input1")
! Touchstone port 2 = CST MWS port 2 ("Input2")
# GHz S MA R 50
4.6                    0.2341444       -154.5666        0.5879794        64.87899        0.5879788        64.87897        0.2341446       -154.5666
4.6014                 0.2410073       -155.5306        0.5901179        64.03182        0.5901174        64.03179        0.2410076       -155.5306
4.6028                 0.2479098       -156.5009        0.5921841        63.16403        0.5921836        63.16401        0.2479101       -156.5009
4.6042                 0.2548425       -157.4771        0.5941585          62.276         0.594158          62.276        0.2548429       -157.4772
4.6056                 0.2617963       -158.4587        0.5960223         61.3683        0.5960219         61.3683        0.2617967       -158.4587
4.607                  0.2687626       -159.4448        0.5977576        60.44159        0.5977571        60.44159        0.2687629       -159.4448
4.6084                 0.2757333       -160.4346        0.5993469        59.49677        0.5993465        59.49677        0.2757337       -160.4346
4.6098                 0.2827012        -161.427        0.6007747         58.5348        0.6007743         58.5348        0.2827015       -161.4271
4.6112                 0.2896599       -162.4212        0.6020261        57.55678        0.6020259        57.55678        0.2896602       -162.4213
4.6126                 0.2966038       -163.4161        0.6030882        56.56393        0.6030879        56.56394        0.2966042       -163.4162
4.614                  0.3035285       -164.4108        0.6039491        55.55753         0.603949        55.55753         0.303529       -164.4108
4.6154                 0.3104305       -165.4042         0.604599        54.53891        0.6045989        54.53891        0.3104309       -165.4042
4.6168                 0.3173074       -166.3956        0.6050296        53.50946        0.6050295        53.50948        0.3173078       -166.3956
4.6182                 0.3241576       -167.3842        0.6052343        52.47063        0.6052342        52.47063         0.324158       -167.3843
4.6196                 0.3309811       -168.3694        0.6052083        51.42383        0.6052082        51.42384        0.3309814       -168.3694
4.621                  0.3377782       -169.3505        0.6049484         50.3705        0.6049484        50.37051        0.3377786       -169.3506
4.6224                 0.3445506       -170.3274        0.6044533        49.31207        0.6044533        49.31207        0.3445509       -170.3274
4.6238                 0.3513005       -171.2996        0.6037233        48.24995        0.6037233        48.24995        0.3513009       -171.2996
4.6252                 0.3580309       -172.2671          0.60276         47.1855        0.6027601        47.18549        0.3580314       -172.2671
4.6266                 0.3647455         -173.23        0.6015668        46.12004        0.6015669        46.12003        0.3647459         -173.23
4.628                  0.3714482       -174.1884        0.6001483        45.05483        0.6001483        45.05482        0.3714486       -174.1885
4.6294                 0.3781433       -175.1428        0.5985104        43.99108        0.5985104        43.99106        0.3781437       -175.1429
4.6308                  0.384835       -176.0937        0.5966603         42.9299        0.5966603         42.9299        0.3848355       -176.0937
4.6322                 0.3915277       -177.0416        0.5946059        41.87236        0.5946058        41.87235        0.3915281       -177.0416
4.6336                 0.3982253       -177.9874        0.5923561        40.81941        0.5923561         40.8194        0.3982257       -177.9874
4.635                  0.4049314       -178.9319        0.5899208        39.77192        0.5899208         39.7719        0.4049318       -178.9319
4.6364                 0.4116489        -179.876          0.58731        38.73067          0.58731        38.73065        0.4116494        -179.876
4.6378                 0.4183801        179.1791        0.5845346        37.69632        0.5845345         37.6963        0.4183805        179.1791
4.6392                 0.4251263        178.2325        0.5816052        36.66947        0.5816051        36.66945        0.4251267        178.2325
4.6406                 0.4318876         177.283        0.5785332        35.65059         0.578533        35.65057        0.4318882         177.283
4.642                  0.4386636        176.3296        0.5753292        34.64006         0.575329        34.64003         0.438664        176.3295
4.6434                 0.4454517         175.371        0.5720043        33.63816        0.5720042        33.63814        0.4454522         175.371
4.6448                 0.4522488        174.4063         0.568569         32.6451        0.5685688        32.64508        0.4522493        174.4063
4.6462                 0.4590501        173.4344        0.5650335        31.66097        0.5650333        31.66095        0.4590506        173.4344
4.6476                 0.4658497        172.4544        0.5614075        30.68578        0.5614072        30.68576        0.4658502        172.4543
4.649                    0.47264        171.4654        0.5576998         29.7195        0.5576997        29.71948        0.4726405        171.4653
4.6504                 0.4794125        170.4666        0.5539191        28.76199        0.5539188        28.76198         0.479413        170.4666
4.6518                 0.4861571        169.4575        0.5500728        27.81309        0.5500726        27.81308        0.4861577        169.4575
4.6532                  0.492863        168.4375        0.5461679        26.87256        0.5461677        26.87255        0.4928635        168.4374
4.6546                 0.4995178        167.4062        0.5422106        25.94014        0.5422102        25.94013        0.4995184        167.4061
4.656                  0.5061086        166.3633        0.5382059        25.01555        0.5382056        25.01555        0.5061092        166.3632
4.6574                 0.5126216        165.3087        0.5341587        24.09847        0.5341584        24.09847        0.5126221        165.3087
4.6588                 0.5190421        164.2426        0.5300723        23.18862        0.5300721        23.18863        0.5190427        164.2425
4.6602                 0.5253554        163.1649        0.5259503        22.28568          0.52595        22.28568         0.525356        163.1649
4.6616                 0.5315461        162.0761        0.5217947        21.38937        0.5217945        21.38938        0.5315466         162.076
4.663                  0.5375987        160.9765        0.5176076        20.49945        0.5176073        20.49946        0.5375992        160.9765
4.6644                 0.5434981        159.8668        0.5133901        19.61568        0.5133898        19.61569        0.5434986        159.8667
4.6658                 0.5492289        158.7475        0.5091432         18.7379        0.5091431        18.73791        0.5492295        158.7475
4.6672                 0.5547766        157.6196        0.5048677        17.86597        0.5048676        17.86599        0.5547771        157.6195
4.6686                 0.5601269        156.4838        0.5005639        16.99984        0.5005638        16.99986        0.5601273        156.4837
4.67                   0.5652663        155.3411         0.496232        16.13947        0.4962319         16.1395        0.5652668        155.3411
4.6714                 0.5701823        154.1927        0.4918725        15.28493        0.4918724        15.28495        0.5701827        154.1927
4.6728                 0.5748635        153.0396        0.4874856        14.43631        0.4874855        14.43634        0.5748638        153.0396
4.6742                 0.5792993         151.883        0.4830719        13.59378        0.4830718        13.59381        0.5792997         151.883
4.6756                 0.5834808        150.7242        0.4786321        12.75755        0.4786321        12.75758        0.5834812        150.7242
4.677                  0.5874002        149.5645        0.4741675         11.9279        0.4741675        11.92792        0.5874005        149.5644
4.6784                 0.5910514        148.4051        0.4696795        11.10511        0.4696796        11.10514        0.5910516         148.405
4.6798                 0.5944296        147.2474        0.4651701        10.28955        0.4651702        10.28958        0.5944299        147.2473
4.6812                 0.5975319        146.0927        0.4606417        9.481584        0.4606417        9.481603        0.5975322        146.0926
4.6826                 0.6003568        144.9423        0.4560972        8.681584        0.4560973        8.681601        0.6003571        144.9423
4.684                  0.6029047        143.7976          0.45154        7.889942        0.4515401        7.889958         0.602905        143.7976
4.6854                 0.6051776        142.6598         0.446974        7.107038         0.446974        7.107051        0.6051778        142.6598
4.6868                  0.607179        141.5302        0.4424035        6.333223        0.4424036        6.333233        0.6071793        141.5301
4.6882                 0.6089145        140.4099        0.4378335        5.568819        0.4378336        5.568827        0.6089147        140.4098
4.6896                 0.6103905        139.3001        0.4332689        4.814099         0.433269        4.814104        0.6103907        139.3001
4.691                  0.6116157        138.2018        0.4287152        4.069272        0.4287153        4.069274         0.611616        138.2018
4.6924                 0.6125998        137.1161        0.4241781        3.334476        0.4241782        3.334477           0.6126        137.1161
4.6938                 0.6133538        136.0437        0.4196633        2.609764        0.4196633        2.609762        0.6133542        136.0437
4.6952                 0.6138901        134.9856        0.4151765        1.895095        0.4151766         1.89509        0.6138904        134.9856
4.6966                 0.6142218        133.9423        0.4107236        1.190321        0.4107237        1.190314        0.6142221        133.9423
4.698                  0.6143631        132.9144        0.4063098        0.495188          0.40631       0.4951795        0.6143633        132.9143
4.6994                 0.6143286        131.9022        0.4019406      -0.1906715        0.4019406      -0.1906813        0.6143289        131.9022
4.7008                 0.6141338        130.9062        0.3976205      -0.8677415        0.3976205      -0.8677526        0.6141341        130.9062
4.7022                 0.6137942        129.9264        0.3933536       -1.536619        0.3933536       -1.536631        0.6137945        129.9264
4.7036                 0.6133255        128.9629        0.3891436        -2.19801        0.3891436       -2.198022        0.6133258        128.9629
4.705                  0.6127432        128.0155        0.3849932       -2.852747        0.3849932       -2.852747        0.6127435        128.0155
4.7064                 0.6120624         127.084        0.3809046       -3.501662        0.3809045       -3.501662        0.6120627         127.084
4.7078                 0.6112979        126.1679        0.3768786       -4.145814        0.3768785       -4.145813        0.6112981        126.1679
4.7092                 0.6104636        125.2667        0.3729155       -4.786192        0.3729155       -4.786192        0.6104639        125.2667
4.7106                 0.6095726        124.3797        0.3690148       -5.423855        0.3690147       -5.423861        0.6095729        124.3797
4.712                  0.6086368        123.5062        0.3651744       -6.059974        0.3651743       -6.059977        0.6086371        123.5062
4.7134                  0.607667        122.6451        0.3613919       -6.695624        0.3613918       -6.695625        0.6076673        122.6451
4.7148                 0.6066725        121.7957        0.3576637       -7.331893        0.3576636        -7.33189        0.6066728        121.7957
4.7162                 0.6056612        120.9569        0.3539854       -7.969817        0.3539853        -7.96981        0.6056616        120.9569
4.7176                 0.6046395        120.1274        0.3503519       -8.610366        0.3503518       -8.610357        0.6046399        120.1275
4.719                  0.6036122        119.3064        0.3467574       -9.254422        0.3467573        -9.25441        0.6036125        119.3063
4.7204                 0.6025824        118.4924        0.3431955       -9.902752        0.3431953       -9.902736        0.6025828        118.4924
4.7218                 0.6015518        117.6845        0.3396594       -10.55599        0.3396593       -10.55597        0.6015522        117.6845
4.7232                 0.6005204        116.8816        0.3361421       -11.21464         0.336142       -11.21461        0.6005208        116.8816
4.7246                 0.5994868        116.0824        0.3326363       -11.87901        0.3326362       -11.87898        0.5994872        116.0824
4.726                  0.5984483        115.2861        0.3291348       -12.54927        0.3291348       -12.54924        0.5984486        115.2861
4.7274                 0.5974007        114.4917        0.3256306        -13.2254        0.3256306       -13.22537        0.5974012        114.4917
4.7288                 0.5963392        113.6984        0.3221169       -13.90719        0.3221169       -13.90716        0.5963396        113.6984
4.7302                 0.5952576        112.9054        0.3185873       -14.59425        0.3185873       -14.59421         0.595258        112.9054
4.7316                 0.5941491        112.1121         0.315036         -15.286        0.3150361       -15.28596        0.5941496        112.1121
4.733                  0.5930067         111.318        0.3114581       -15.98169        0.3114582       -15.98165         0.593007         111.318
4.7344                 0.5918224        110.5227        0.3078492        -16.6804        0.3078493       -16.68037        0.5918228        110.5227
4.7358                 0.5905887        109.7261         0.304206       -17.38105        0.3042061       -17.38102         0.590589        109.7261
4.7372                 0.5892977        108.9279         0.300526       -18.08241        0.3005262       -18.08238         0.589298        108.9279
4.7386                  0.587942        108.1283         0.296808       -18.78314        0.2968082       -18.78311        0.5879423        108.1283
4.74                   0.5865145        107.3273        0.2930517       -19.48176        0.2930519       -19.48173        0.5865148        107.3273
4.7414                 0.5850089        106.5251        0.2892581       -20.17674        0.2892583       -20.17671        0.5850092        106.5251
4.7428                 0.5834193        105.7222        0.2854291       -20.86647        0.2854293       -20.86645        0.5834196        105.7222
4.7442                  0.581741         104.919        0.2815678        -21.5493         0.281568       -21.54928        0.5817413         104.919
4.7456                 0.5799703        104.1159        0.2776785       -22.22359        0.2776787       -22.22358        0.5799705         104.116
4.747                  0.5781043        103.3138        0.2737664       -22.88771        0.2737667        -22.8877        0.5781046        103.3138
4.7484                 0.5761416         102.513        0.2698377       -23.54009         0.269838       -23.54009        0.5761419         102.513
4.7498                  0.574082        101.7143        0.2658995       -24.17925        0.2658998       -24.17926        0.5740821        101.7144
4.7512                 0.5719262        100.9185        0.2619595       -24.80384        0.2619598       -24.80386        0.5719264        100.9185
4.7526                 0.5696764        100.1261        0.2580261       -25.41266        0.2580264       -25.41268        0.5696766        100.1262
4.754                   0.567336        99.33797        0.2541084       -26.00471        0.2541086       -26.00474        0.5673362          99.338
4.7554                 0.5649095        98.55465        0.2502153       -26.57923        0.2502155       -26.57926        0.5649097        98.55464
4.7568                 0.5624024        97.77668        0.2463562       -27.13569        0.2463565       -27.13573        0.5624026        97.77668
4.7582                 0.5598212        97.00467        0.2425404       -27.67389        0.2425407       -27.67395        0.5598214        97.00467
4.7596                 0.5571732        96.23901         0.238777       -28.19394        0.2387772         -28.194        0.5571734        96.23903
4.761                  0.5544664        95.48007        0.2350743       -28.69626        0.2350745       -28.69633        0.5544666        95.48007
4.7624                 0.5517094        94.72808        0.2314405       -29.18166        0.2314406       -29.18173        0.5517096        94.72808
4.7638                 0.5489109        93.98312        0.2278825       -29.65129        0.2278827       -29.65136        0.5489111        93.98312
4.7652                 0.5460801        93.24521        0.2244066       -30.10666        0.2244067       -30.10673        0.5460803        93.24524
4.7666                 0.5432258         92.5142        0.2210177       -30.54962        0.2210178        -30.5497        0.5432261        92.51422
4.768                  0.5403571        91.78977        0.2177194       -30.98236        0.2177195       -30.98245        0.5403573        91.78983
4.7694                 0.5374821        91.07158        0.2145141       -31.40735        0.2145141       -31.40744        0.5374823         91.0716
4.7708                 0.5346088        90.35899        0.2114025        -31.8273        0.2114025       -31.82739         0.534609        90.35904
4.7722                 0.5317441        89.65139         0.208384       -32.24511         0.208384       -32.24521        0.5317443        89.65139
4.7736                  0.528894        88.94786        0.2054562       -32.66385        0.2054561       -32.66394        0.5288942        88.94791
4.775                  0.5260637         88.2476        0.2026154       -33.08662        0.2026153        -33.0867        0.5260639        88.24763
4.7764                 0.5232569        87.54959        0.1998563       -33.51653        0.1998562       -33.51661        0.5232572        87.54959
4.7778                 0.5204764        86.85266        0.1971725       -33.95663        0.1971723       -33.95672        0.5204766        86.85268
4.7792                  0.517723        86.15567        0.1945561       -34.40983        0.1945559       -34.40991        0.5177232        86.15573
4.7806                 0.5149967        85.45752        0.1919983       -34.87882        0.1919981       -34.87889        0.5149969        85.45757
4.782                  0.5122958        84.75696        0.1894896       -35.36603        0.1894893        -35.3661        0.5122961        84.75698
4.7834                 0.5096173        84.05276        0.1870195       -35.87357        0.1870192       -35.87364        0.5096175        84.05281
4.7848                 0.5069568         83.3438        0.1845774       -36.40318        0.1845771       -36.40324         0.506957         83.3438
4.7862                 0.5043086        82.62891        0.1821523        -36.9562        0.1821521       -36.95625        0.5043088        82.62891
4.7876                 0.5016659        81.90705        0.1797334       -37.53356        0.1797331        -37.5336        0.5016661        81.90711
4.789                  0.4990211        81.17729          0.17731       -38.13572        0.1773097       -38.13575        0.4990212        81.17732
4.7904                 0.4963652        80.43877        0.1748719       -38.76271        0.1748716       -38.76274        0.4963654        80.43877
4.7918                  0.493689        79.69071        0.1724095       -39.41412        0.1724093       -39.41414        0.4936891        79.69071
4.7932                 0.4909824        78.93253        0.1699143        -40.0891        0.1699141       -40.08911        0.4909825        78.93253
4.7946                 0.4882353        78.16377        0.1673785       -40.78639        0.1673783        -40.7864        0.4882353        78.16379
4.796                  0.4854371        77.38413        0.1647955       -41.50434        0.1647953       -41.50434        0.4854371        77.38415
4.7974                 0.4825775        76.59346        0.1621601        -42.2409        0.1621599       -42.24089        0.4825775        76.59347
4.7988                 0.4796464        75.79174        0.1594682       -42.99372         0.159468       -42.99372        0.4796463        75.79175
4.8002                  0.476634        74.97912        0.1567174       -43.76017        0.1567172       -43.76015         0.476634        74.97912
4.8016                 0.4735314        74.15588        0.1539064       -44.53731        0.1539062       -44.53729        0.4735314        74.15589
4.803                  0.4703303        73.32246        0.1510356       -45.32202        0.1510355         -45.322        0.4703302        73.32249
4.8044                 0.4670231        72.47943        0.1481069       -46.11102        0.1481068       -46.11099        0.4670231        72.47943
4.8058                 0.4636036        71.62743        0.1451235       -46.90086        0.1451234       -46.90084        0.4636036        71.62744
4.8072                 0.4600667        70.76722          0.14209       -47.68811        0.1420899       -47.68808        0.4600666        70.76725
4.8086                 0.4564083         69.8997        0.1390122       -48.46926        0.1390121       -48.46924        0.4564082        69.89972
4.81                   0.4526258        69.02575        0.1358973       -49.24094        0.1358972        -49.2409        0.4526257        69.02578
4.8114                 0.4487178        68.14634        0.1327534       -49.99987        0.1327533       -49.99985        0.4487177        68.14637
4.8128                 0.4446844        67.26246        0.1295896       -50.74305        0.1295896       -50.74302        0.4446842        67.26249
4.8142                 0.4405268        66.37511        0.1264158       -51.46778        0.1264158       -51.46774        0.4405266        66.37514
4.8156                 0.4362477        65.48526        0.1232424       -52.17179        0.1232424       -52.17176        0.4362475        65.48529
4.817                  0.4318507        64.59385        0.1200802       -52.85337        0.1200802       -52.85334        0.4318505         64.5939
4.8184                 0.4273408        63.70177          0.11694       -53.51147          0.11694       -53.51145        0.4273406        63.70183
4.8198                 0.4227238        62.80982        0.1138327       -54.14586        0.1138326       -54.14583        0.4227236        62.80987
4.8212                 0.4180065        61.91867        0.1107685       -54.75718        0.1107685       -54.75716        0.4180062        61.91872
4.8226                 0.4131961        61.02889        0.1077573       -55.34715        0.1077573       -55.34713        0.4131959        61.02894
4.824                  0.4083008        60.14089        0.1048078       -55.91863        0.1048078       -55.91861        0.4083005        60.14095
4.8254                 0.4033284        59.25492        0.1019276       -56.47575        0.1019275       -56.47574        0.4033282        59.25498
4.8268                 0.3982875        58.37103       0.09912268       -57.02398       0.09912266       -57.02396        0.3982873         58.3711
4.8282                 0.3931861        57.48911       0.09639752       -57.57013        0.0963975       -57.57012         0.393186        57.48917
4.8296                 0.3880323         56.6088       0.09375459       -58.12245       0.09375458       -58.12244        0.3880321        56.60886
4.831                  0.3828331        55.72952       0.09119428       -58.69048       0.09119426       -58.69048        0.3828329        55.72959
4.8324                 0.3775953         54.8505       0.08871486        -59.2851       0.08871486       -59.28509        0.3775951        54.85058
4.8338                 0.3723245        53.97072       0.08631247       -59.91833       0.08631246       -59.91832        0.3723243         53.9708
4.8352                 0.3670249        53.08894       0.08398109       -60.60326       0.08398106       -60.60324        0.3670247        53.08903
4.8366                 0.3616998        52.20372       0.08171273       -61.35383       0.08171271       -61.35381        0.3616996        52.20381
4.838                  0.3563508        51.31341       0.07949767       -62.18476       0.07949763       -62.18475        0.3563507        51.31349
4.8394                  0.350978        50.41618       0.07732466       -63.11144       0.07732463       -63.11144        0.3509778        50.41627
4.8408                 0.3455797        49.51003       0.07518137       -64.14979       0.07518136       -64.14978        0.3455796        49.51011
4.8422                 0.3401526        48.59285       0.07305477        -65.3163       0.07305476       -65.31628        0.3401525        48.59292
4.8436                 0.3346916        47.66239       0.07093154       -66.62808       0.07093152       -66.62807        0.3346914        47.66247
4.845                  0.3291897        46.71635       0.06879861       -68.10311       0.06879859       -68.10308        0.3291895        46.71643
4.8464                 0.3236384        45.75239       0.06664371       -69.76047       0.06664368       -69.76046        0.3236383        45.75247
4.8478                 0.3180277        44.76814       0.06445584       -71.62089       0.06445583       -71.62087        0.3180276        44.76821
4.8492                  0.312346        43.76126       0.06222601        -73.7073         0.062226       -73.70727        0.3123459        43.76134
4.8506                 0.3065802         42.7295       0.05994774       -76.04564       0.05994772       -76.04562        0.3065801        42.72958
4.852                  0.3007163        41.67067       0.05761785       -78.66591       0.05761785       -78.66587        0.3007161        41.67074
4.8534                 0.2947394        40.58269       0.05523732       -81.60331       0.05523732        -81.6033        0.2947393        40.58276
4.8548                 0.2886338        39.46364       0.05281222       -84.89972       0.05281222        -84.8997        0.2886337        39.46371
4.8562                 0.2823834        38.31176       0.05035496       -88.60516       0.05035496       -88.60513        0.2823833        38.31183
4.8576                 0.2759718        37.12548       0.04788577       -92.77924       0.04788577        -92.7792        0.2759716        37.12555
4.859                  0.2693827        35.90341       0.04543459       -97.49207       0.04543461       -97.49204        0.2693825        35.90347
4.8604                 0.2626002        34.64436        0.0430433       -102.8236       0.04304331       -102.8236           0.2626        34.64442
4.8618                 0.2556087        33.34737       0.04076811         -108.86       0.04076813         -108.86        0.2556084        33.34743
4.8632                 0.2483936        32.01166       0.03868181        -115.684       0.03868182       -115.6839        0.2483933        32.01172
4.8646                 0.2409412        30.63668       0.03687465       -123.3563       0.03687467       -123.3563        0.2409409        30.63675
4.866                  0.2332391        29.22208       0.03545213       -131.8868       0.03545215       -131.8867        0.2332388        29.22214
4.8674                 0.2252762        27.76767       0.03452725       -141.1981       0.03452727        -141.198        0.2252759        27.76774
4.8688                 0.2170432        26.27348       0.03420601       -151.0987       0.03420602       -151.0987        0.2170428        26.27355
4.8702                 0.2085322        24.73969       0.03456818       -161.2894        0.0345682       -161.2893        0.2085318        24.73976
4.8716                 0.1997374        23.16664        0.0356507        -171.416       0.03565071       -171.4159        0.1997369        23.16671