! TOUCHSTONE file generated by CST MICROWAVE STUDIO
! Date and time: Sun Dec  1 17:17:00 2024
! Project name: test_tuning.cst
! Parameters = {airCoaxOuterDiameter=3; chamferAngle=45; chamferWidth=24; connectorLength=10; drillingHoleDiameter=4.1; feedLength=60; flareDiameter=130; flareLength=70; gratingDistance=0; gratingGap=1.90274; outletLength=30; polarizerLength=86; probe1Diameter=1.3; probe1Distance=14; probe1Length=12; probe2Diameter=1.3; probe2Distance=0; probe2Length=12; probeLength=12; smaInnerDiameter=1.3; smaOuterDiameter=4.1; transitionCoefficient=1.33; waveguideFeedLength=30; waveguideSide=50; waveguideThickness=3; wireCount=25; wireDiameter=1.17699}
! Header version: 2024
! Port assignment regex: !\s*Touchstone port\s*([0-9]+)\s*=\s*(CST MWS port|CST DES external port|CST DES block port)\s*(.+)\s* \(\"(.*)\"\)(\s*mode\s*([0-9]+))?.*
! Touchstone port assignment:
! Touchstone port 1 = CST MWS port 1 ("Input1")
! Touchstone port 2 = CST MWS port 2 ("Input2")
# GHz S MA R 50
4.6                    0.2328986       -156.1176        0.5954975        68.17925        0.5954974        68.17923        0.2328987       -156.1177
4.6014                 0.2399556       -157.1871        0.5976548        67.26886        0.5976547        67.26884        0.2399557       -157.1872
4.6028                 0.2470292       -158.2533         0.599726        66.34859        0.5997259        66.34859        0.2470293       -158.2534
4.6042                 0.2541162       -159.3166        0.6017052        65.41864        0.6017051        65.41863        0.2541163       -159.3167
4.6056                 0.2612136       -160.3776        0.6035867        64.47916        0.6035866        64.47915        0.2612138       -160.3777
4.607                  0.2683184       -161.4367         0.605365        63.53039         0.605365        63.53037        0.2683185       -161.4368
4.6084                 0.2754273       -162.4944        0.6070349         62.5726        0.6070347        62.57259        0.2754275       -162.4945
4.6098                 0.2825372       -163.5512         0.608591        61.60611        0.6085909        61.60609        0.2825374       -163.5513
4.6112                 0.2896447       -164.6075        0.6100286        60.63126        0.6100286        60.63123        0.2896449       -164.6076
4.6126                 0.2967463       -165.6638        0.6113433         59.6484        0.6113432        59.64838        0.2967465       -165.6638
4.614                  0.3038382       -166.7204         0.612531        58.65793        0.6125309        58.65793        0.3038385       -166.7204
4.6154                 0.3109164       -167.7777         0.613588        57.66028        0.6135879        57.66027        0.3109167       -167.7778
4.6168                 0.3179768       -168.8362        0.6145111        56.65586        0.6145111        56.65584        0.3179771       -168.8362
4.6182                 0.3250148       -169.8961        0.6152977        55.64512        0.6152977        55.64509        0.3250151       -169.8961
4.6196                 0.3320257       -170.9577        0.6159454        54.62848        0.6159454        54.62845         0.332026       -170.9577
4.621                  0.3390044       -172.0213        0.6164526         53.6064        0.6164525        53.60638        0.3390047       -172.0213
4.6224                 0.3459455       -173.0871        0.6168179        52.57933        0.6168178         52.5793        0.3459458       -173.0872
4.6238                 0.3528434       -174.1553        0.6170405        51.54769        0.6170404        51.54766        0.3528438       -174.1554
4.6252                 0.3596922       -175.2261        0.6171201        50.51192          0.61712        50.51189        0.3596926       -175.2261
4.6266                 0.3664858       -176.2994        0.6170568        49.47243        0.6170567         49.4724        0.3664862       -176.2995
4.628                  0.3732178       -177.3754         0.616851         48.4296        0.6168508        48.42957        0.3732182       -177.3754
4.6294                 0.3798816        -178.454        0.6165035        47.38383        0.6165033        47.38381         0.379882        -178.454
4.6308                 0.3864706       -179.5351        0.6160157        46.33547        0.6160155        46.33544        0.3864711       -179.5352
4.6322                 0.3929781        179.3813        0.6153889        45.28485        0.6153888        45.28481        0.3929785        179.3812
4.6336                 0.3993971        178.2955         0.614625        44.23226        0.6146248        44.23223        0.3993975        178.2954
4.635                  0.4057208        177.2076        0.6137259        43.17801        0.6137258        43.17797        0.4057212        177.2075
4.6364                 0.4119424        176.1179        0.6126938        42.12234        0.6126935        42.12231        0.4119428        176.1179
4.6378                 0.4180552        175.0267         0.611531        41.06549        0.6115307        41.06546        0.4180557        175.0267
4.6392                 0.4240528        173.9344        0.6102398        40.00767        0.6102395        40.00764        0.4240532        173.9344
4.6406                 0.4299286        172.8413        0.6088226        38.94905        0.6088223        38.94902        0.4299291        172.8413
4.642                  0.4356767        171.7479        0.6072821         37.8898        0.6072818        37.88977        0.4356772        171.7479
4.6434                 0.4412914        170.6546        0.6056207        36.83006        0.6056203        36.83003        0.4412919        170.6546
4.6448                 0.4467671        169.5618        0.6038406        35.76994        0.6038403        35.76992        0.4467675        169.5618
4.6462                 0.4520989          168.47        0.6019445        34.70956        0.6019441        34.70953        0.4520994          168.47
4.6476                 0.4572821        167.3798        0.5999345          33.649        0.5999341        33.64897        0.4572826        167.3798
4.649                  0.4623128        166.2916        0.5978129        32.58833        0.5978125        32.58831        0.4623133        166.2916
4.6504                 0.4671872        165.2059        0.5955818        31.52764        0.5955815        31.52762        0.4671877        165.2059
4.6518                 0.4719023        164.1233        0.5932433        30.46697         0.593243        30.46695        0.4719028        164.1233
4.6532                 0.4764555        163.0442        0.5907992         29.4064        0.5907988        29.40638         0.476456        163.0442
4.6546                 0.4808448        161.9692        0.5882513        28.34597        0.5882509        28.34596        0.4808453        161.9692
4.656                  0.4850687        160.8987        0.5856014        27.28577        0.5856011        27.28575        0.4850693        160.8987
4.6574                 0.4891264        159.8333        0.5828512        26.22584        0.5828509        26.22583         0.489127        159.8333
4.6588                 0.4930175        158.7733        0.5800023        25.16628        0.5800019        25.16627         0.493018        158.7732
4.6602                 0.4967421        157.7191        0.5770562        24.10714        0.5770559        24.10714        0.4967426         157.719
4.6616                 0.5003007        156.6711        0.5740146        23.04855        0.5740142        23.04855        0.5003013        156.6711
4.663                  0.5036947        155.6298        0.5708791        21.99059        0.5708787        21.99059        0.5036952        155.6298
4.6644                 0.5069253        154.5954        0.5676512        20.93339        0.5676508        20.93339        0.5069259        154.5954
4.6658                 0.5099946        153.5682        0.5643328        19.87707        0.5643324        19.87707        0.5099951        153.5682
4.6672                 0.5129047        152.5485        0.5609257        18.82179        0.5609253        18.82179        0.5129053        152.5485
4.6686                 0.5156582        151.5364        0.5574317        17.76768        0.5574314        17.76769        0.5156588        151.5364
4.67                    0.518258        150.5321        0.5538532        16.71493        0.5538529        16.71493        0.5182585        150.5321
4.6714                 0.5207068        149.5358        0.5501923         15.6637         0.550192        15.66371        0.5207074        149.5358
4.6728                 0.5230077        148.5475        0.5464516        14.61419        0.5464513        14.61419        0.5230083        148.5475
4.6742                 0.5251639        147.5672        0.5426336        13.56657        0.5426333        13.56657        0.5251645        147.5672
4.6756                 0.5271787        146.5951        0.5387415        12.52104        0.5387412        12.52104        0.5271793        146.5951
4.677                  0.5290549         145.631        0.5347781        11.47779        0.5347779        11.47779        0.5290555         145.631
4.6784                 0.5307958         144.675        0.5307473        10.43699         0.530747          10.437        0.5307964         144.675
4.6798                 0.5324041        143.7269        0.5266523        9.398835        0.5266521        9.398842        0.5324047        143.7269
4.6812                 0.5338825        142.7866        0.5224971        8.363475        0.5224969        8.363483        0.5338831        142.7866
4.6826                 0.5352335         141.854        0.5182858        7.331057        0.5182856        7.331065        0.5352342         141.854
4.684                  0.5364594        140.9291        0.5140226        6.301703        0.5140223        6.301711        0.5364601        140.9291
4.6854                 0.5375622        140.0115        0.5097118        5.275505        0.5097116        5.275514        0.5375627        140.0115
4.6868                 0.5385433        139.1013        0.5053581        4.252529        0.5053579        4.252537        0.5385439        139.1013
4.6882                 0.5394043        138.1983        0.5009661          3.2328        0.5009659        3.232808        0.5394049        138.1982
4.6896                 0.5401462        137.3022        0.4965405        2.216303        0.4965403        2.216311        0.5401468        137.3022
4.691                  0.5407697        136.4132         0.492086        1.202981        0.4920859         1.20299        0.5407703        136.4131
4.6924                 0.5412755        135.5309        0.4876073       0.1927261        0.4876072       0.1927344         0.541276        135.5309
4.6938                 0.5416635        134.6554        0.4831091      -0.8146217        0.4831089      -0.8146133        0.5416641        134.6554
4.6952                  0.541934        133.7866        0.4785957       -1.819275        0.4785956       -1.819267        0.5419346        133.7866
4.6966                 0.5420869        132.9245        0.4740715       -2.821506        0.4740715       -2.821498        0.5420874        132.9245
4.698                  0.5421217        132.0692        0.4695407       -3.821643        0.4695406       -3.821635        0.5421222        132.0692
4.6994                 0.5420383        131.2207        0.4650069       -4.820072        0.4650067       -4.820064        0.5420387        131.2207
4.7008                 0.5418359        130.3791        0.4604735       -5.817243        0.4604734       -5.817235        0.5418365        130.3791
4.7022                 0.5415146        129.5447        0.4559438        -6.81366        0.4559437        -6.81366         0.541515        129.5447
4.7036                 0.5410737        128.7176        0.4514202       -7.809867        0.4514201       -7.809867        0.5410741        128.7176
4.705                  0.5405133        127.8981        0.4469051       -8.806508        0.4469051       -8.806508        0.5405138        127.8981
4.7064                 0.5398337        127.0865        0.4424001       -9.804246           0.4424       -9.804219        0.5398341        127.0865
4.7078                 0.5390349        126.2831        0.4379063       -10.80371        0.4379062       -10.80371        0.5390354        126.2831
4.7092                 0.5381181        125.4885        0.4334244       -11.80577        0.4334243       -11.80577        0.5381185        125.4885
4.7106                 0.5370841         124.703        0.4289544        -12.8111        0.4289544       -12.81109        0.5370845         124.703
4.712                  0.5359348        123.9271         0.424496       -13.82055        0.4244959       -13.82054        0.5359352        123.9271
4.7134                 0.5346723        123.1613        0.4200479       -14.83494        0.4200478       -14.83493        0.5346726        123.1613
4.7148                 0.5332994        122.4062        0.4156086        -15.8551        0.4156086       -15.85509        0.5332997        122.4062
4.7162                 0.5318194        121.6625        0.4111761       -16.88187        0.4111761       -16.88186        0.5318197        121.6625
4.7176                 0.5302363        120.9306        0.4067476       -17.91608        0.4067476       -17.91607        0.5302366        120.9306
4.719                   0.528555        120.2112          0.40232       -18.95855        0.4023201       -18.95854        0.5285552        120.2112
4.7204                 0.5267806        119.5049          0.39789       -20.01007          0.39789       -20.01006        0.5267808        119.5049
4.7218                 0.5249194        118.8124        0.3934536        -21.0714        0.3934535       -21.07139        0.5249197        118.8124
4.7232                 0.5229782        118.1341        0.3890065       -22.14328        0.3890065       -22.14327        0.5229784        118.1341
4.7246                 0.5209643        117.4707        0.3845443       -23.22639        0.3845443       -23.22638        0.5209645        117.4707
4.726                  0.5188858        116.8227        0.3800623       -24.32135        0.3800623       -24.32134        0.5188861        116.8227
4.7274                 0.5167516        116.1905        0.3755558       -25.42875        0.3755558       -25.42874        0.5167518        116.1906
4.7288                 0.5145708        115.5747        0.3710198       -26.54909        0.3710198       -26.54909        0.5145711        115.5747
4.7302                 0.5123534        114.9755        0.3664494       -27.68283        0.3664495       -27.68283        0.5123536        114.9756
4.7316                 0.5101094        114.3933        0.3618399       -28.83035        0.3618399       -28.83034        0.5101096        114.3933
4.733                  0.5078495        113.8282        0.3571864       -29.99195        0.3571865       -29.99195        0.5078497        113.8282
4.7344                 0.5055846        113.2803        0.3524847       -31.16788        0.3524848       -31.16787        0.5055848        113.2804
4.7358                 0.5033257        112.7497        0.3477303       -32.35829        0.3477304       -32.35829        0.5033259        112.7497
4.7372                 0.5010838        112.2362        0.3429195       -33.56329        0.3429195       -33.56329         0.501084        112.2362
4.7386                 0.4988702        111.7395        0.3380485       -34.78289        0.3380486        -34.7829        0.4988704        111.7396
4.74                   0.4966956        111.2594        0.3331143       -36.01705        0.3331144       -36.01706        0.4966958        111.2594
4.7414                 0.4945707        110.7952        0.3281142       -37.26567        0.3281143       -37.26567        0.4945709        110.7953
4.7428                 0.4925057        110.3465        0.3230461       -38.52856        0.3230461       -38.52856         0.492506        110.3466
4.7442                 0.4905104        109.9125        0.3179081       -39.80548        0.3179082        -39.8055        0.4905107        109.9125
4.7456                 0.4885939        109.4922        0.3126993       -41.09618        0.3126994       -41.09619        0.4885941        109.4922
4.747                  0.4867645        109.0847        0.3074191       -42.40029        0.3074191        -42.4003        0.4867648        109.0847
4.7484                 0.4850299        108.6889        0.3020674       -43.71744        0.3020675       -43.71746        0.4850301         108.689
4.7498                 0.4833965        108.3036         0.296645       -45.04722        0.2966451       -45.04724        0.4833968        108.3037
4.7512                 0.4818701        107.9275         0.291153       -46.38918         0.291153        -46.3892        0.4818704        107.9276
4.7526                 0.4804552        107.5592        0.2855931       -47.74283        0.2855932       -47.74285        0.4804555        107.5593
4.754                  0.4791551        107.1973        0.2799678       -49.10768        0.2799678       -49.10771        0.4791555        107.1974
4.7554                 0.4779723        106.8403        0.2742799       -50.48323          0.27428       -50.48325        0.4779726        106.8403
4.7568                 0.4769078        106.4866        0.2685328       -51.86895        0.2685328       -51.86897         0.476908        106.4867
4.7582                 0.4759614        106.1348        0.2627303       -53.26432        0.2627304       -53.26434        0.4759616        106.1348
4.7596                 0.4751318        105.7832         0.256877       -54.66885        0.2568771       -54.66887        0.4751321        105.7833
4.761                  0.4744169        105.4305        0.2509776       -56.08203        0.2509777       -56.08206        0.4744171        105.4305
4.7624                 0.4738129        105.0751        0.2450374        -57.5034        0.2450374       -57.50342        0.4738132        105.0751
4.7638                 0.4733154        104.7156        0.2390619        -58.9325        0.2390619       -58.93252        0.4733157        104.7157
4.7652                 0.4729188        104.3507        0.2330569       -60.36896         0.233057       -60.36898        0.4729191        104.3508
4.7666                 0.4726168        103.9792        0.2270289       -61.81242        0.2270289       -61.81244        0.4726171        103.9792
4.768                  0.4724023        103.5999         0.220984       -63.26258         0.220984       -63.26261        0.4724026        103.5999
4.7694                 0.4722673        103.2117         0.214929       -64.71924        0.2149291       -64.71926        0.4722676        103.2117
4.7708                 0.4722035        102.8136        0.2088707       -66.18224        0.2088707       -66.18227        0.4722038        102.8137
4.7722                 0.4722018        102.4049        0.2028159       -67.65156        0.2028159       -67.65158        0.4722021         102.405
4.7736                  0.472253        101.9849        0.1967715       -69.12725        0.1967715       -69.12727        0.4722533         101.985
4.775                  0.4723476         101.553        0.1907445       -70.60949        0.1907445       -70.60951        0.4723478        101.5531
4.7764                 0.4724758        101.1088        0.1847418       -72.09862        0.1847418       -72.09863        0.4724761        101.1088
4.7778                  0.472628        100.6518        0.1787704       -73.59508        0.1787704       -73.59511        0.4726282        100.6518
4.7792                 0.4727943        100.1819         0.172837       -75.09958         0.172837       -75.09961        0.4727946        100.1819
4.7806                 0.4729653        99.69887        0.1669483       -76.61295        0.1669483       -76.61297        0.4729655        99.69893
4.782                  0.4731316        99.20287        0.1611107       -78.13625        0.1611107       -78.13628        0.4731317        99.20289
4.7834                  0.473284        98.69386        0.1553306       -79.67083        0.1553306       -79.67086        0.4732842        98.69392
4.7848                 0.4734139        98.17207        0.1496141       -81.21831        0.1496141       -81.21834        0.4734142        98.17213
4.7862                 0.4735132        97.63774        0.1439671        -82.7806        0.1439671       -82.78063        0.4735134        97.63776
4.7876                 0.4735738         97.0912        0.1383951          -84.36        0.1383951       -84.36003         0.473574        97.09123
4.789                  0.4735886        96.53282        0.1329035       -85.95918        0.1329035       -85.95923        0.4735888        96.53287
4.7904                 0.4735507        95.96312        0.1274975       -87.58135        0.1274976       -87.58138        0.4735509        95.96314
4.7918                  0.473454        95.38247         0.122182       -89.23013         0.122182       -89.23018        0.4734542        95.38252
4.7932                  0.473293        94.79155        0.1169616        -90.9098        0.1169616       -90.90984        0.4732931        94.79158
4.7946                 0.4730625        94.19085        0.1118406       -92.62528        0.1118406       -92.62533        0.4730627        94.19087
4.796                  0.4727583        93.58096        0.1068233       -94.38225        0.1068233       -94.38231        0.4727585        93.58098
4.7974                 0.4723764        92.96249        0.1019138       -96.18727        0.1019138       -96.18731        0.4723767        92.96255
4.7988                 0.4719138        92.33611       0.09711601       -98.04785       0.09711605        -98.0479         0.471914        92.33614
4.8002                 0.4713677        91.70242       0.09243394       -99.97263       0.09243398       -99.97268         0.471368        91.70244
4.8016                 0.4707361        91.06201       0.08787159       -101.9715       0.08787162       -101.9716        0.4707363        91.06206
4.803                  0.4700175        90.41556       0.08343309        -104.056       0.08343312       -104.0561        0.4700177        90.41558
4.8044                 0.4692107        89.76363       0.07912288        -106.239        0.0791229        -106.239         0.469211        89.76367
4.8058                 0.4683154        89.10685        0.0749458       -108.5353       0.07494584       -108.5354        0.4683156        89.10689
4.8072                 0.4673314        88.44578       0.07090733        -110.962       0.07090736       -110.9621        0.4673316        88.44581
4.8086                 0.4662589        87.78098       0.06701372       -113.5383       0.06701374       -113.5383        0.4662592          87.781
4.81                   0.4650988        87.11296       0.06327223       -116.2857       0.06327226       -116.2858         0.465099        87.11301
4.8114                 0.4638521        86.44227       0.05969146       -119.2284        0.0596915       -119.2285        0.4638523        86.44232
4.8128                 0.4625202        85.76939       0.05628161       -122.3929       0.05628163        -122.393        0.4625204        85.76943
4.8142                 0.4611047        85.09474       0.05305473       -125.8077       0.05305476       -125.8078        0.4611049        85.09477
4.8156                 0.4596077        84.41875        0.0500251       -129.5025       0.05002512       -129.5026        0.4596079         84.4188
4.817                  0.4580312        83.74183       0.04720939       -133.5065       0.04720941       -133.5067        0.4580314        83.74186
4.8184                 0.4563775        83.06431       0.04462675       -137.8464       0.04462678       -137.8466        0.4563777        83.06435
4.8198                 0.4546492        82.38655       0.04229871       -142.5422       0.04229873       -142.5424        0.4546493        82.38657
4.8212                 0.4528488         81.7088        0.0402485        -147.603       0.04024853       -147.6032        0.4528489        81.70885
4.8226                 0.4509791        81.03136       0.03850009       -153.0213       0.03850011       -153.0215        0.4509792         81.0314
4.824                  0.4490426        80.35444       0.03707636       -158.7674       0.03707639       -158.7676        0.4490427        80.35449
4.8254                 0.4470424        79.67826       0.03599689       -164.7857       0.03599692       -164.7859        0.4470425         79.6783
4.8268                 0.4449811        79.00297       0.03527534       -170.9946       0.03527538       -170.9949        0.4449812        79.00301
4.8282                 0.4428616        78.32874       0.03491711       -177.2918       0.03491715       -177.2921        0.4428617        78.32877
4.8296                 0.4406866        77.65562       0.03491788        176.4358       0.03491793        176.4356        0.4406867        77.65566
4.831                  0.4384589        76.98375       0.03526344        170.2991       0.03526348        170.2989        0.4384589        76.98381
4.8324                  0.436181         76.3132         0.035931         164.394       0.03593105        164.3938         0.436181        76.31323
4.8338                 0.4338556        75.64394       0.03689153        158.7932       0.03689158        158.7931        0.4338557        75.64399
4.8352                 0.4314852        74.97604       0.03811256        153.5433       0.03811262        153.5431        0.4314852        74.97609
4.8366                 0.4290722        74.30947       0.03956079        148.6657       0.03956084        148.6656        0.4290722        74.30951
4.838                  0.4266186        73.64419       0.04120408         144.162       0.04120413        144.1618        0.4266187        73.64422
4.8394                  0.424127        72.98015       0.04301281        140.0189       0.04301285        140.0187         0.424127        72.98019
4.8408                 0.4215991        72.31728       0.04496053        136.2141       0.04496056         136.214         0.421599        72.31734
4.8422                 0.4190368        71.65553       0.04702419        132.7205       0.04702423        132.7203        0.4190368        71.65556
4.8436                 0.4164419        70.99474       0.04918406        129.5089       0.04918409        129.5088        0.4164419         70.9948
4.845                  0.4138161        70.33484       0.05142337        126.5507        0.0514234        126.5506         0.413816        70.33489
4.8464                 0.4111608        69.67569       0.05372805        123.8187       0.05372807        123.8186        0.4111607        69.67575
4.8478                 0.4084772        69.01717       0.05608627        121.2878       0.05608629        121.2877        0.4084772        69.01722
4.8492                 0.4057667        68.35911       0.05848818        118.9354        0.0584882        118.9353        0.4057667        68.35916
4.8506                 0.4030302         67.7014       0.06092556        116.7413       0.06092558        116.7413        0.4030301        67.70146
4.852                  0.4002687        67.04384       0.06339154        114.6879       0.06339155        114.6878        0.4002686         67.0439
4.8534                 0.3974829        66.38631       0.06588041        112.7592       0.06588042        112.7591        0.3974828        66.38637
4.8548                 0.3946734        65.72862       0.06838739        110.9415       0.06838739        110.9415        0.3946733        65.72868
4.8562                 0.3918408        65.07063        0.0709085        109.2228        0.0709085        109.2228        0.3918408        65.07067
4.8576                 0.3889857        64.41214       0.07344042        107.5925       0.07344043        107.5925        0.3889856         64.4122
4.859                   0.386108        63.75302       0.07598042        106.0413       0.07598043        106.0413        0.3861079        63.75308
4.8604                 0.3832082        63.09309       0.07852621        104.5611       0.07852622         104.561        0.3832081        63.09315
4.8618                 0.3802863         62.4322        0.0810759        103.1446        0.0810759        103.1445        0.3802862        62.43227
4.8632                 0.3773423        61.77021       0.08362795        101.7855       0.08362794        101.7855        0.3773422        61.77028
4.8646                 0.3743761        61.10696       0.08618109        100.4782       0.08618109        100.4782         0.374376        61.10703
4.866                  0.3713877        60.44232        0.0887343        99.21782        0.0887343         99.2178        0.3713876        60.44238
4.8674                 0.3683767        59.77614       0.09128678        97.99984       0.09128679        97.99983        0.3683766        59.77622
4.8688                 0.3653431        59.10832       0.09383787        96.82033       0.09383789        96.82033         0.365343        59.10839
4.8702                 0.3622864        58.43875       0.09638711        95.67576       0.09638713        95.67576        0.3622863        58.43881
4.8716                 0.3592064        57.76729       0.09893414        94.56295       0.09893416        94.56293        0.3592062        57.76736