! TOUCHSTONE file generated by CST MICROWAVE STUDIO
! Date and time: Sun Dec  1 17:16:59 2024
! Project name: test_tuning.cst
! Parameters = {airCoaxOuterDiameter=3; chamferAngle=45; chamferWidth=24; connectorLength=10; drillingHoleDiameter=4.1; feedLength=60; flareDiameter=130; flareLength=70; gratingDistance=0; gratingGap=1.90274; outletLength=30; polarizerLength=80; probe1Diameter=1.3; probe1Distance=14; probe1Length=12; probe2Diameter=1.3; probe2Distance=0; probe2Length=12; probeLength=12; smaInnerDiameter=1.3; smaOuterDiameter=4.1; transitionCoefficient=1.33; waveguideFeedLength=30; waveguideSide=50; waveguideThickness=3; wireCount=25; wireDiameter=1.17699}
! Header version: 2024
! Port assignment regex: !\s*Touchstone port\s*([0-9]+)\s*=\s*(CST MWS port|CST DES external port|CST DES block port)\s*(.+)\s* \(\"(.*)\"\)(\s*mode\s*([0-9]+))?.*
! Touchstone port assignment:
! Touchstone port 1 = CST MWS port 1 ("Input1")
! Touchstone port 2 = CST MWS port 2 ("Input2")
# GHz S MA R 50
4.6                    0.2104804       -154.7316        0.5968276        64.70802        0.5968278        64.70796        0.2104803       -154.7315
4.6014                 0.2170468       -155.7427        0.5989291        63.83176        0.5989293        63.83171        0.2170468       -155.7427
4.6028                 0.2236637       -156.7519        0.6009478         62.9457         0.600948        62.94565        0.2236637       -156.7518
4.6042                 0.2303273       -157.7601        0.6028797        62.05005        0.6028798        62.04999        0.2303274       -157.7601
4.6056                 0.2370336       -158.7685        0.6047207        61.14502        0.6047208        61.14497        0.2370337       -158.7685
4.607                  0.2437781        -159.778        0.6064671        60.23083        0.6064671        60.23078        0.2437783        -159.778
4.6084                 0.2505564       -160.7893        0.6081147        59.30776        0.6081148        59.30771        0.2505566       -160.7893
4.6098                 0.2573635       -161.8032        0.6096604        58.37605        0.6096603        58.37599        0.2573637       -161.8031
4.6112                 0.2641942       -162.8201        0.6111002        57.43599        0.6111002        57.43592        0.2641945       -162.8201
4.6126                 0.2710434       -163.8406        0.6124313        56.48782        0.6124312        56.48777        0.2710437       -163.8406
4.614                  0.2779052       -164.8651        0.6136503        55.53187        0.6136503        55.53181        0.2779056       -164.8651
4.6154                 0.2847739       -165.8938        0.6147547         54.5684        0.6147546        54.56834        0.2847743       -165.8938
4.6168                 0.2916435       -166.9271        0.6157416        53.59772        0.6157416        53.59767         0.291644        -166.927
4.6182                 0.2985077        -167.965        0.6166088        52.62014        0.6166087        52.62008        0.2985082       -167.9649
4.6196                   0.30536       -169.0077         0.617354        51.63595        0.6173538        51.63589        0.3053606       -169.0076
4.621                  0.3121941       -170.0552        0.6179752        50.64547        0.6179751        50.64541        0.3121946       -170.0552
4.6224                  0.319003       -171.1075        0.6184709        49.64898        0.6184708        49.64893        0.3190035       -171.1075
4.6238                   0.32578       -172.1646        0.6188396         48.6468        0.6188393        48.64675        0.3257806       -172.1646
4.6252                 0.3325182       -173.2263          0.61908        47.63923        0.6190797        47.63918        0.3325189       -173.2263
4.6266                 0.3392106       -174.2925         0.619191        46.62656        0.6191908        46.62651        0.3392113       -174.2925
4.628                  0.3458503       -175.3631        0.6191721        45.60908        0.6191717        45.60904         0.345851       -175.3631
4.6294                 0.3524303       -176.4377        0.6190224        44.58709         0.619022        44.58705         0.352431       -176.4377
4.6308                 0.3589434       -177.5162        0.6187418        43.56087        0.6187414        43.56082        0.3589442       -177.5162
4.6322                 0.3653829       -178.5982          0.61833        42.53068        0.6183296        42.53064        0.3653836       -178.5982
4.6336                 0.3717418       -179.6834         0.617787        41.49681        0.6177867        41.49677        0.3717426       -179.6834
4.635                  0.3780134        179.2285        0.6171131         40.4595        0.6171126        40.45947        0.3780141        179.2285
4.6364                  0.384191        178.1379        0.6163086        39.41902        0.6163083        39.41899        0.3841918        178.1378
4.6378                 0.3902682        177.0452         0.615374        38.37561        0.6153736        38.37559        0.3902689        177.0451
4.6392                 0.3962387        175.9507          0.61431        37.32952        0.6143096         37.3295        0.3962395        175.9507
4.6406                 0.4020965        174.8549        0.6131174        36.28097        0.6131169        36.28095        0.4020972        174.8549
4.642                  0.4078356        173.7583         0.611797        35.23019        0.6117966        35.23017        0.4078363        173.7583
4.6434                 0.4134506        172.6613          0.61035        34.17739        0.6103495        34.17738        0.4134513        172.6612
4.6448                 0.4189362        171.5643        0.6087773        33.12282        0.6087769         33.1228        0.4189368        171.5642
4.6462                 0.4242874        170.4678        0.6070804        32.06664        0.6070799        32.06663         0.424288        170.4677
4.6476                 0.4294995        169.3722        0.6052605        31.00909          0.60526        31.00907        0.4295002        169.3722
4.649                  0.4345684        168.2781        0.6033189        29.95034        0.6033185        29.95033         0.434569        168.2781
4.6504                   0.43949        167.1859        0.6012573         28.8906        0.6012568         28.8906        0.4394907        167.1858
4.6518                  0.444261         166.096        0.5990771        27.83007        0.5990766        27.83007        0.4442616         166.096
4.6532                  0.448878         165.009        0.5967799        26.76893        0.5967795        26.76893        0.4488786         165.009
4.6546                 0.4533384        163.9253        0.5943675        25.70736        0.5943671        25.70737         0.453339        163.9253
4.656                  0.4576399        162.8453        0.5918416        24.64558        0.5918413        24.64558        0.4576404        162.8453
4.6574                 0.4617804        161.7695        0.5892041        23.58374        0.5892038        23.58375         0.461781        161.7695
4.6588                 0.4657585        160.6984        0.5864569        22.52205        0.5864567        22.52207        0.4657591        160.6983
4.6602                 0.4695733        159.6322         0.583602         21.4607        0.5836019        21.46072        0.4695738        159.6322
4.6616                 0.4732238        158.5715        0.5806416        20.39988        0.5806414         20.3999        0.4732243        158.5715
4.663                  0.4767099        157.5167        0.5775776        19.33979        0.5775774        19.33981        0.4767103        157.5166
4.6644                 0.4800316         156.468        0.5744124        18.28061        0.5744123        18.28063        0.4800321         156.468
4.6658                 0.4831896        155.4259        0.5711484        17.22255        0.5711484        17.22257          0.48319        155.4259
4.6672                 0.4861845        154.3907        0.5677881        16.16582        0.5677881        16.16583         0.486185        154.3907
4.6686                 0.4890177        153.3627        0.5643339        15.11061        0.5643339        15.11062        0.4890181        153.3627
4.67                   0.4916907        152.3423        0.5607887        14.05713        0.5607887        14.05715        0.4916911        152.3422
4.6714                 0.4942053        151.3295        0.5571551         13.0056        0.5571551        13.00562        0.4942057        151.3295
4.6728                 0.4965636        150.3248        0.5534362        11.95623        0.5534362        11.95624        0.4965641        150.3248
4.6742                 0.4987682        149.3283        0.5496349        10.90922         0.549635        10.90923        0.4987686        149.3282
4.6756                 0.5008215        148.3402        0.5457547        9.864789        0.5457547        9.864802         0.500822        148.3402
4.677                  0.5027265        147.3606        0.5417986        8.823151        0.5417987        8.823161        0.5027269        147.3606
4.6784                 0.5044861        146.3898        0.5377703        7.784511        0.5377704        7.784518        0.5044866        146.3898
4.6798                 0.5061034        145.4278        0.5336733        6.749075        0.5336734        6.749082        0.5061039        145.4278
4.6812                 0.5075817        144.4747        0.5295114        5.717043        0.5295116        5.717045        0.5075822        144.4747
4.6826                 0.5089244        143.5305        0.5252885        4.688606        0.5252887        4.688607        0.5089248        143.5305
4.684                  0.5101347        142.5954        0.5210086        3.663949        0.5210088        3.663947        0.5101352        142.5954
4.6854                 0.5112161        141.6692         0.516676        2.643243        0.5166763        2.643238        0.5112166        141.6692
4.6868                 0.5121719        140.7521        0.5122947        1.626649         0.512295        1.626641        0.5121724        140.7521
4.6882                 0.5130055        139.8439        0.5078692       0.6143086        0.5078695       0.6142973        0.5130059        139.8439
4.6896                   0.51372        138.9446        0.5034039      -0.3936522        0.5034042      -0.3936667        0.5137205        138.9446
4.691                  0.5143188        138.0542        0.4989034       -1.397128        0.4989037       -1.397146        0.5143193        138.0542
4.6924                 0.5148047        137.1725        0.4943722       -2.396039        0.4943725        -2.39606        0.5148051        137.1725
4.6938                 0.5151807        136.2995         0.489815       -3.390327        0.4898153       -3.390352        0.5151811        136.2995
4.6952                 0.5154494        135.4351        0.4852363       -4.379967        0.4852365       -4.379995        0.5154498        135.4351
4.6966                 0.5156135        134.5791        0.4806408        -5.36496         0.480641       -5.364991         0.515614        134.5791
4.698                  0.5156752        133.7315        0.4760331       -6.345345        0.4760334       -6.345379        0.5156756        133.7315
4.6994                 0.5156369         132.892        0.4714178       -7.321192         0.471418       -7.321229        0.5156373         132.892
4.7008                 0.5155005        132.0607        0.4667993       -8.292622        0.4667995       -8.292649        0.5155009        132.0607
4.7022                 0.5152677        131.2374        0.4621819       -9.259762         0.462182       -9.259817        0.5152681        131.2374
4.7036                 0.5149402        130.4219        0.4575699       -10.22283        0.4575701       -10.22288        0.5149406        130.4219
4.705                  0.5145194        129.6143        0.4529674       -11.18204        0.4529675       -11.18209        0.5145197        129.6142
4.7064                 0.5140065        128.8143        0.4483782       -12.13768        0.4483783       -12.13777        0.5140069        128.8143
4.7078                 0.5134026        128.0221         0.443806        -13.0901         0.443806       -13.09018        0.5134031        128.0221
4.7092                 0.5127088        127.2374        0.4392541       -14.03964        0.4392542       -14.03969        0.5127091        127.2374
4.7106                 0.5119257        126.4604        0.4347258       -14.98673        0.4347258       -14.98679         0.511926        126.4604
4.712                  0.5110542         125.691        0.4302239       -15.93183        0.4302239       -15.93189        0.5110545         125.691
4.7134                  0.510095        124.9292        0.4257509       -16.87545        0.4257509       -16.87551        0.5100953        124.9292
4.7148                 0.5090487        124.1752         0.421309       -17.81815        0.4213089        -17.8182         0.509049        124.1752
4.7162                 0.5079159        123.4289           0.4169        -18.7605           0.4169       -18.76056        0.5079161        123.4289
4.7176                 0.5066973        122.6906        0.4125255       -19.70315        0.4125255       -19.70321        0.5066976        122.6906
4.719                  0.5053937        121.9604        0.4081865       -20.64677        0.4081864       -20.64682         0.505394        121.9604
4.7204                 0.5040059        121.2385        0.4038838       -21.59206        0.4038837       -21.59211        0.5040061        121.2385
4.7218                 0.5025348         120.525        0.3996177       -22.53975        0.3996175        -22.5398         0.502535         120.525
4.7232                 0.5009816        119.8203         0.395388       -23.49059        0.3953879       -23.49065        0.5009818        119.8204
4.7246                 0.4993476        119.1247        0.3911944       -24.44538        0.3911943       -24.44543        0.4993479        119.1247
4.726                  0.4976345        118.4384        0.3870361       -25.40491        0.3870359       -25.40496        0.4976347        118.4384
4.7274                  0.495844        117.7617        0.3829117       -26.36999        0.3829116       -26.37003        0.4958442        117.7617
4.7288                 0.4939782        117.0951        0.3788198       -27.34143        0.3788196       -27.34147        0.4939784        117.0952
4.7302                 0.4920397         116.439        0.3747585       -28.32005        0.3747583       -28.32009        0.4920399         116.439
4.7316                 0.4900312        115.7937        0.3707255       -29.30667        0.3707253       -29.30671        0.4900315        115.7937
4.733                   0.487956        115.1596        0.3667183        -30.3021        0.3667181       -30.30214        0.4879562        115.1597
4.7344                 0.4858174        114.5373        0.3627341       -31.30714        0.3627339       -31.30717        0.4858177        114.5373
4.7358                 0.4836197        113.9271          0.35877       -32.32256        0.3587698       -32.32259        0.4836199        113.9271
4.7372                  0.481367        113.3294        0.3548227       -33.34913        0.3548225       -33.34915        0.4813672        113.3295
4.7386                 0.4790641        112.7448        0.3508889       -34.38757        0.3508887        -34.3876        0.4790643        112.7448
4.74                   0.4767161        112.1736         0.346965        -35.4386        0.3469648       -35.43861        0.4767164        112.1737
4.7414                 0.4743288        111.6163        0.3430475       -36.50288        0.3430473       -36.50289        0.4743291        111.6163
4.7428                 0.4719079        111.0732        0.3391327       -37.58104        0.3391325       -37.58106        0.4719082        111.0733
4.7442                 0.4694599        110.5447        0.3352168       -38.67371        0.3352167       -38.67372        0.4694602        110.5448
4.7456                 0.4669914        110.0312        0.3312963       -39.78143        0.3312962       -39.78143        0.4669917        110.0312
4.747                  0.4645093        109.5328        0.3273677       -40.90472        0.3273675       -40.90472        0.4645097        109.5329
4.7484                  0.462021        109.0499        0.3234272       -42.04408        0.3234271       -42.04408        0.4620214          109.05
4.7498                 0.4595339        108.5826        0.3194716       -43.19994        0.3194715       -43.19994        0.4595343        108.5826
4.7512                 0.4570557        108.1309        0.3154976       -44.37271        0.3154975       -44.37272        0.4570561         108.131
4.7526                 0.4545944         107.695        0.3115023       -45.56276        0.3115022       -45.56276        0.4545947        107.6951
4.754                  0.4521576        107.2748        0.3074827       -46.77041        0.3074826       -46.77041         0.452158        107.2749
4.7554                 0.4497535        106.8702        0.3034363       -47.99594        0.3034363       -47.99595         0.449754        106.8703
4.7568                   0.44739        106.4809        0.2993609       -49.23963        0.2993608       -49.23963        0.4473905        106.4809
4.7582                 0.4450748        106.1066        0.2952543       -50.50171        0.2952542       -50.50172        0.4450753        106.1066
4.7596                 0.4428157        105.7469        0.2911149       -51.78237        0.2911149       -51.78237        0.4428161         105.747
4.761                  0.4406199        105.4013        0.2869412       -53.08178        0.2869412       -53.08178        0.4406203        105.4014
4.7624                 0.4384945        105.0692        0.2827323       -54.40011        0.2827323       -54.40011         0.438495        105.0693
4.7638                 0.4364463          104.75        0.2784874       -55.73748        0.2784874       -55.73749        0.4364468          104.75
4.7652                 0.4344816        104.4427        0.2742062       -57.09404        0.2742062       -57.09406        0.4344821        104.4427
4.7666                  0.432606        104.1465        0.2698886       -58.46991        0.2698886       -58.46991        0.4326065        104.1465
4.768                  0.4308247        103.8603         0.265535       -59.86515         0.265535       -59.86517        0.4308251        103.8603
4.7694                 0.4291421        103.5832        0.2611461       -61.27994        0.2611461       -61.27996        0.4291425        103.5832
4.7708                 0.4275621        103.3139         0.256723       -62.71436         0.256723       -62.71437        0.4275625        103.3139
4.7722                 0.4260878        103.0513         0.252267       -64.16856        0.2522671       -64.16856        0.4260882        103.0513
4.7736                 0.4247215         102.794          0.24778       -65.64264          0.24778       -65.64266        0.4247219         102.794
4.775                  0.4234646        102.5408        0.2432639        -67.1368         0.243264       -67.13683         0.423465        102.5408
4.7764                  0.422318        102.2903        0.2387213       -68.65123        0.2387214       -68.65125        0.4223184        102.2903
4.7778                 0.4212814        102.0412        0.2341547       -70.18612        0.2341548       -70.18615        0.4212817        102.0411
4.7792                 0.4203538        101.7919        0.2295673       -71.74173        0.2295674       -71.74176        0.4203542        101.7919
4.7806                 0.4195336        101.5413        0.2249622       -73.31837        0.2249623        -73.3184        0.4195339        101.5413
4.782                  0.4188181        101.2879        0.2203431       -74.91635        0.2203432       -74.91639        0.4188184         101.288
4.7834                 0.4182039        101.0305        0.2157137       -76.53608        0.2157138       -76.53612        0.4182041        101.0305
4.7848                  0.417687        100.7678        0.2110781         -78.178        0.2110781       -78.17804        0.4176872        100.7678
4.7862                 0.4172625        100.4985        0.2064405       -79.84262        0.2064405       -79.84266        0.4172627        100.4985
4.7876                 0.4169251        100.2215        0.2018054       -81.53053        0.2018054       -81.53058        0.4169253        100.2215
4.789                  0.4166687        99.93582        0.1971774       -83.24234        0.1971774        -83.2424        0.4166689        99.93582
4.7904                 0.4164869        99.64044        0.1925613       -84.97885        0.1925614       -84.97889        0.4164871        99.64044
4.7918                 0.4163727        99.33445        0.1879622       -86.74081        0.1879622       -86.74086        0.4163729        99.33447
4.7932                 0.4163187        99.01707        0.1833851       -88.52915        0.1833851       -88.52921        0.4163188        99.01712
4.7946                 0.4163172        98.68769        0.1788352       -90.34489        0.1788353       -90.34494        0.4163174        98.68772
4.796                  0.4163604        98.34562         0.174318       -92.18909        0.1743181       -92.18915        0.4163605        98.34567
4.7974                 0.4164402        97.99046        0.1698389       -94.06299        0.1698389       -94.06306        0.4164403        97.99049
4.7988                 0.4165484        97.62182        0.1654034       -95.96787        0.1654034       -95.96795        0.4165485        97.62184
4.8002                 0.4166767        97.23939        0.1610171       -97.90518        0.1610171       -97.90526        0.4166769        97.23942
4.8016                 0.4168172        96.84302        0.1566857       -99.87642        0.1566857       -99.87648        0.4168174        96.84305
4.803                  0.4169617        96.43263         0.152415       -101.8832         0.152415       -101.8833        0.4169618        96.43265
4.8044                 0.4171022        96.00822        0.1482108       -103.9273        0.1482108       -103.9274        0.4171023        96.00824
4.8058                 0.4172311        95.56985         0.144079       -106.0106         0.144079       -106.0107        0.4172312         95.5699
4.8072                 0.4173409        95.11773        0.1400254       -108.1349        0.1400254        -108.135        0.4173411        95.11778
4.8086                 0.4174246        94.65212        0.1360559       -110.3023        0.1360559       -110.3024        0.4174247        94.65214
4.81                   0.4174753        94.17327        0.1321765       -112.5148        0.1321765       -112.5149        0.4174754        94.17331
4.8114                 0.4174865         93.6816        0.1283933       -114.7744        0.1283933       -114.7745        0.4174867        93.68164
4.8128                 0.4174523        93.17751        0.1247121       -117.0834        0.1247121       -117.0835        0.4174525        93.17756
4.8142                 0.4173672        92.66145        0.1211389       -119.4436        0.1211389       -119.4437        0.4173673        92.66151
4.8156                 0.4172258        92.13398        0.1176798       -121.8572        0.1176798       -121.8573        0.4172259        92.13404
4.817                  0.4170235        91.59562        0.1143407       -124.3258        0.1143407       -124.3259        0.4170237        91.59568
4.8184                 0.4167562        91.04695        0.1111276       -126.8511        0.1111276       -126.8512        0.4167564          91.047
4.8198                 0.4164202        90.48855        0.1080462       -129.4345        0.1080462       -129.4346        0.4164203         90.4886
4.8212                 0.4160121        89.92104        0.1051024       -132.0769        0.1051024        -132.077        0.4160122        89.92111
4.8226                 0.4155291        89.34507        0.1023018       -134.7788        0.1023017       -134.7789        0.4155293        89.34512
4.824                  0.4149691        88.76122       0.09964975       -137.5403       0.09964972       -137.5403        0.4149693        88.76128
4.8254                 0.4143301        88.17016       0.09715162       -140.3605        0.0971516       -140.3606        0.4143302        88.17021
4.8268                 0.4136107         87.5725        0.0948123       -143.2381       0.09481229       -143.2382        0.4136109        87.57256
4.8282                   0.41281        86.96887       0.09263637       -146.1708       0.09263636       -146.1709        0.4128102        86.96893
4.8296                 0.4119274        86.35991       0.09062794       -149.1555       0.09062794       -149.1556        0.4119277        86.35995
4.831                  0.4109628        85.74616       0.08879068       -152.1879       0.08879067        -152.188         0.410963        85.74621
4.8324                 0.4099165        85.12824       0.08712757       -155.2629       0.08712755        -155.263        0.4099166         85.1283
4.8338                 0.4087888        84.50671       0.08564098       -158.3744       0.08564096       -158.3745         0.408789        84.50677
4.8352                 0.4075808        83.88209       0.08433247       -161.5153       0.08433246       -161.5154         0.407581        83.88214
4.8366                 0.4062936        83.25491       0.08320282       -164.6778       0.08320281       -164.6779        0.4062938        83.25496
4.838                  0.4049288        82.62564       0.08225193       -167.8531       0.08225192       -167.8532        0.4049289         82.6257
4.8394                 0.4034879        81.99475       0.08147877       -171.0322       0.08147877       -171.0322        0.4034881         81.9948
4.8408                 0.4019729        81.36264       0.08088144       -174.2055       0.08088145       -174.2056        0.4019731         81.3627
4.8422                 0.4003859        80.72974       0.08045716       -177.3635       0.08045716       -177.3636        0.4003861         80.7298
4.8436                 0.3987291        80.09639       0.08020226        179.5032       0.08020227        179.5031        0.3987293        80.09645
4.845                  0.3970049        79.46293       0.08011232        176.4037       0.08011233        176.4036        0.3970051        79.46297
4.8464                 0.3952158        78.82965       0.08018222        173.3465       0.08018223        173.3464        0.3952159        78.82969
4.8478                 0.3933643        78.19678       0.08040626        170.3392       0.08040626        170.3391        0.3933644        78.19684
4.8492                 0.3914529        77.56461       0.08077821        167.3888       0.08077822        167.3887         0.391453        77.56465
4.8506                 0.3894843        76.93329       0.08129153         164.501       0.08129154         164.501        0.3894844        76.93335
4.852                  0.3874611        76.30301        0.0819394        161.6807       0.08193941        161.6807        0.3874612        76.30305
4.8534                 0.3853857        75.67388       0.08271486        158.9317       0.08271486        158.9316        0.3853859        75.67392
4.8548                 0.3832608        75.04602        0.0836109        156.2565       0.08361092        156.2564        0.3832609        75.04606
4.8562                 0.3810887        74.41949        0.0846206        153.6569        0.0846206        153.6569        0.3810888        74.41953
4.8576                 0.3788719        73.79433       0.08573708        151.1339        0.0857371        151.1338        0.3788719        73.79438
4.859                  0.3766125        73.17057       0.08695374        148.6873       0.08695376        148.6873        0.3766125        73.17061
4.8604                 0.3743126        72.54819       0.08826412        146.3166       0.08826414        146.3166        0.3743126        72.54825
4.8618                 0.3719744        71.92719       0.08966211        144.0206       0.08966211        144.0205        0.3719744        71.92725
4.8632                 0.3695996         71.3075       0.09114179        141.7974       0.09114181        141.7974        0.3695996        71.30754
4.8646                   0.36719        70.68906       0.09269762         139.645       0.09269763        139.6449          0.36719        70.68911
4.866                  0.3647472        70.07179        0.0943243        137.5608        0.0943243        137.5608        0.3647472        70.07185
4.8674                 0.3622725         69.4556       0.09601686        135.5424       0.09601687        135.5423        0.3622725        69.45564
4.8688                 0.3597673        68.84037       0.09777062        133.5867       0.09777064        133.5867        0.3597673        68.84043
4.8702                 0.3572328        68.22602       0.09958117        131.6911       0.09958119        131.6911        0.3572327        68.22606
4.8716                 0.3546698        67.61238        0.1014444        129.8524        0.1014444        129.8524        0.3546697        67.61244