! TOUCHSTONE file generated by CST MICROWAVE STUDIO
! Date and time: Sun Dec  1 17:17:05 2024
! Project name: test_tuning.cst
! Parameters = {airCoaxOuterDiameter=3; chamferAngle=45; chamferWidth=24; connectorLength=10; drillingHoleDiameter=4.1; feedLength=60; flareDiameter=130; flareLength=70; gratingDistance=0; gratingGap=1.90274; outletLength=30; polarizerLength=114; probe1Diameter=1.3; probe1Distance=14; probe1Length=12; probe2Diameter=1.3; probe2Distance=0; probe2Length=12; probeLength=12; smaInnerDiameter=1.3; smaOuterDiameter=4.1; transitionCoefficient=1.33; waveguideFeedLength=30; waveguideSide=50; waveguideThickness=3; wireCount=25; wireDiameter=1.17699}
! Header version: 2024
! Port assignment regex: !\s*Touchstone port\s*([0-9]+)\s*=\s*(CST MWS port|CST DES external port|CST DES block port)\s*(.+)\s* \(\"(.*)\"\)(\s*mode\s*([0-9]+))?.*
! Touchstone port assignment:
! Touchstone port 1 = CST MWS port 1 ("Input1")
! Touchstone port 2 = CST MWS port 2 ("Input2")
# GHz S MA R 50
4.6                    0.1889008       -153.7797        0.6607134        61.11146        0.6607148        61.11157        0.1888986       -153.7803
4.6014                 0.1949626       -155.0238        0.6616162        60.21873        0.6616176        60.21882        0.1949604       -155.0243
4.6028                 0.2010205       -156.2418        0.6624761        59.31698        0.6624775        59.31707        0.2010183       -156.2423
4.6042                 0.2070725       -157.4352        0.6632836        58.40595         0.663285        58.40602        0.2070702       -157.4356
4.6056                 0.2131172       -158.6052        0.6640288        57.48555        0.6640303        57.48561         0.213115       -158.6056
4.607                  0.2191545       -159.7533        0.6647018         56.5558        0.6647032        56.55585        0.2191524       -159.7535
4.6084                 0.2251844       -160.8806        0.6652934        55.61685        0.6652948         55.6169        0.2251824       -160.8807
4.6098                 0.2312079       -161.9885         0.665795        54.66902        0.6657963        54.66906         0.231206       -161.9886
4.6112                  0.237226       -163.0785        0.6661986        53.71266        0.6661999        53.71268        0.2372242       -163.0786
4.6126                 0.2432399        -164.152        0.6664981        52.74823        0.6664992        52.74825        0.2432384       -164.1521
4.614                  0.2492511       -165.2105        0.6666882        51.77624        0.6666892        51.77625        0.2492497       -165.2105
4.6154                 0.2552605       -166.2556        0.6667651        50.79725         0.666766        50.79725        0.2552593       -166.2556
4.6168                 0.2612689       -167.2888        0.6667266        49.81177        0.6667275        49.81177        0.2612679       -167.2888
4.6182                 0.2672765       -168.3117        0.6665716        48.82035        0.6665724        48.82034        0.2672757       -168.3117
4.6196                 0.2732828       -169.3258        0.6663006        47.82344        0.6663014        47.82343        0.2732823       -169.3258
4.621                  0.2792867       -170.3326         0.665915        46.82146        0.6659156        46.82146        0.2792864       -170.3326
4.6224                 0.2852861       -171.3334        0.6654172        45.81473        0.6654177        45.81473         0.285286       -171.3334
4.6238                 0.2912782       -172.3296          0.66481        44.80348        0.6648104        44.80347        0.2912783       -172.3295
4.6252                 0.2972593       -173.3222        0.6640969        43.78782        0.6640972        43.78782        0.2972596       -173.3222
4.6266                 0.3032248       -174.3122        0.6632813        42.76776        0.6632816        42.76776        0.3032252       -174.3123
4.628                  0.3091694       -175.3006        0.6623667         41.7432        0.6623668        41.74321          0.30917       -175.3006
4.6294                 0.3150873       -176.2878        0.6613556        40.71393        0.6613558        40.71394        0.3150879       -176.2878
4.6308                  0.320972       -177.2743        0.6602505        39.67964        0.6602506        39.67966        0.3209727       -177.2744
4.6322                 0.3268167       -178.2604        0.6590523        38.63995        0.6590523        38.63998        0.3268174       -178.2605
4.6336                 0.3326145       -179.2462        0.6577611        37.59441        0.6577612        37.59444        0.3326152       -179.2463
4.635                  0.3383584        179.7684        0.6563758        36.54252        0.6563758        36.54256        0.3383591        179.7683
4.6364                 0.3440416        178.7837        0.6548935        35.48377        0.6548936        35.48382        0.3440423        178.7836
4.6378                 0.3496579        177.8001        0.6533106        34.41764        0.6533108        34.41769        0.3496586        177.7999
4.6392                 0.3552012         176.818        0.6516217        33.34366        0.6516217        33.34371        0.3552018        176.8178
4.6406                 0.3606664        175.8381        0.6498201        32.26137        0.6498202        32.26142         0.360667        175.8379
4.642                  0.3660494         174.861         0.647898         31.1704        0.6478983        31.17046        0.3660499        174.8608
4.6434                 0.3713467        173.8875         0.645847        30.07049        0.6458472        30.07055         0.371347        173.8873
4.6448                 0.3765559        172.9182        0.6436573        28.96145        0.6436576         28.9615        0.3765562         172.918
4.6462                  0.381676        171.9539        0.6413189        27.84323        0.6413193        27.84329        0.3816763        171.9538
4.6476                 0.3867069        170.9953        0.6388217        26.71592        0.6388221        26.71598        0.3867071        170.9951
4.649                  0.3916496         170.043        0.6361551        25.57974        0.6361555        25.57979        0.3916497        170.0428
4.6504                 0.3965064        169.0974        0.6333092        24.43502        0.6333096        24.43508        0.3965066        169.0973
4.6518                 0.4012806        168.1591        0.6302742        23.28227        0.6302747        23.28233        0.4012807         168.159
4.6532                 0.4059762        167.2284        0.6270413        22.12213        0.6270419        22.12218        0.4059763        167.2282
4.6546                 0.4105982        166.3053        0.6236027        20.95534        0.6236033        20.95538        0.4105983        166.3052
4.656                  0.4151523        165.3901        0.6199516        19.78279        0.6199522        19.78283        0.4151525          165.39
4.6574                 0.4196446        164.4825        0.6160826        18.60546        0.6160831         18.6055        0.4196448        164.4824
4.6588                 0.4240816        163.5823        0.6119915        17.42444        0.6119921        17.42448        0.4240818        163.5822
4.6602                 0.4284697         162.689         0.607676         16.2409        0.6076765        16.24094        0.4284699        162.6889
4.6616                 0.4328154        161.8021        0.6031351        15.05608        0.6031356        15.05611        0.4328157        161.8021
4.663                  0.4371249         160.921        0.5983694        13.87127        0.5983699         13.8713        0.4371253        160.9209
4.6644                 0.4414039        160.0448        0.5933814         12.6878        0.5933818        12.68783        0.4414043        160.0447
4.6658                 0.4456573        159.1725        0.5881746        11.50704        0.5881752        11.50706        0.4456578        159.1724
4.6672                 0.4498893        158.3031        0.5827546        10.33037        0.5827551         10.3304        0.4498899         158.303
4.6686                 0.4541032        157.4356        0.5771279        9.159192        0.5771283        9.159215        0.4541038        157.4355
4.67                   0.4583008        156.5687        0.5713026        7.994878         0.571303          7.9949        0.4583015        156.5687
4.6714                 0.4624831        155.7015        0.5652879        6.838807        0.5652883        6.838828        0.4624838        155.7014
4.6728                 0.4666496        154.8326         0.559094        5.692334        0.5590943        5.692356        0.4666503        154.8325
4.6742                 0.4707984        153.9609         0.552732        4.556793        0.5527323        4.556816        0.4707991        153.9608
4.6756                 0.4749264        153.0853        0.5462141        3.433488        0.5462144         3.43351        0.4749271        153.0852
4.677                   0.479029        152.2048         0.539553        2.323688        0.5395534        2.323712        0.4790297        152.2047
4.6784                 0.4831004        151.3184        0.5327623         1.22863        0.5327626        1.228655        0.4831011        151.3183
4.6798                 0.4871335        150.4253        0.5258557       0.1495117         0.525856       0.1495376        0.4871342        150.4252
4.6812                 0.4911201        149.5247        0.5188478      -0.9125118         0.518848      -0.9124847        0.4911207        149.5246
4.6826                  0.495051         148.616        0.5117532       -1.956329        0.5117534       -1.956301        0.4950515        148.6159
4.684                  0.4989157        147.6986        0.5045871       -2.980877        0.5045873       -2.980849        0.4989163        147.6985
4.6854                 0.5027038        146.7723        0.4973647       -3.985148         0.497365       -3.985119        0.5027043        146.7723
4.6868                 0.5064033        145.8369        0.4901018       -4.968196        0.4901021       -4.968166        0.5064038        145.8368
4.6882                 0.5100026        144.8922        0.4828138       -5.929141        0.4828141        -5.92911         0.510003        144.8921
4.6896                 0.5134893        143.9384        0.4755167       -6.867186         0.475517       -6.867157        0.5134898        143.9383
4.691                  0.5168512        142.9757        0.4682261        -7.78163        0.4682264       -7.781601        0.5168516        142.9756
4.6924                 0.5200761        142.0044        0.4609578       -8.671872        0.4609581       -8.671845        0.5200764        142.0043
4.6938                 0.5231521         141.025        0.4537274        -9.53744        0.4537277       -9.537414        0.5231523         141.025
4.6952                 0.5260676        140.0383        0.4465502         -10.378        0.4465505       -10.37797         0.526068        140.0382
4.6966                  0.528812        139.0448        0.4394412       -11.19338        0.4394415       -11.19338        0.5288124        139.0447
4.698                   0.531375        138.0454         0.432415       -11.98356        0.4324153       -11.98356        0.5313753        138.0453
4.6994                 0.5337475        137.0411        0.4254852       -12.74879        0.4254855       -12.74879        0.5337478         137.041
4.7008                 0.5359211        136.0327        0.4186651       -13.48946        0.4186653       -13.48944        0.5359215        136.0327
4.7022                 0.5378891        135.0215        0.4119665       -14.20617        0.4119668       -14.20614        0.5378894        135.0215
4.7036                 0.5396453        134.0085        0.4054005       -14.89978        0.4054007       -14.89978        0.5396458        134.0085
4.705                  0.5411853        132.9948        0.3989764       -15.57146        0.3989767       -15.57143        0.5411857        132.9948
4.7064                 0.5425058        131.9818        0.3927025       -16.22244        0.3927027       -16.22244        0.5425062        131.9817
4.7078                 0.5436051        130.9705        0.3865849       -16.85435        0.3865851       -16.85435        0.5436055        130.9704
4.7092                 0.5444826        129.9621        0.3806283       -17.46887        0.3806284       -17.46887        0.5444831        129.9621
4.7106                 0.5451395        128.9579        0.3748352       -18.06796        0.3748353       -18.06795        0.5451399        128.9579
4.712                   0.545578         127.959        0.3692064       -18.65369        0.3692064       -18.65368        0.5455785         127.959
4.7134                 0.5458019        126.9666        0.3637405       -19.22822        0.3637405        -19.2282        0.5458024        126.9665
4.7148                 0.5458162        125.9816        0.3584342       -19.79376        0.3584342       -19.79375        0.5458167        125.9816
4.7162                 0.5456269        125.0053        0.3532824       -20.35255        0.3532825       -20.35253        0.5456275        125.0052
4.7176                 0.5452414        124.0384        0.3482783       -20.90675        0.3482783       -20.90673        0.5452419        124.0383
4.719                  0.5446679        123.0818        0.3434134       -21.45844        0.3434134       -21.45841        0.5446684        123.0818
4.7204                 0.5439154        122.1365         0.338678       -22.00954        0.3386779        -22.0095         0.543916        122.1364
4.7218                 0.5429938        121.2029        0.3340613       -22.56175        0.3340612       -22.56171        0.5429944        121.2029
4.7232                 0.5419135        120.2817        0.3295517       -23.11655        0.3295517        -23.1165        0.5419141        120.2817
4.7246                 0.5406852        119.3734        0.3251374       -23.67514        0.3251374       -23.67509        0.5406857        119.3734
4.726                  0.5393199        118.4784        0.3208063       -24.23841        0.3208063       -24.23835        0.5393204        118.4784
4.7274                 0.5378288        117.5968        0.3165466       -24.80695        0.3165466       -24.80689        0.5378294        117.5968
4.7288                 0.5362229        116.7289         0.312347       -25.38104         0.312347       -25.38097        0.5362235        116.7289
4.7302                  0.534513        115.8747        0.3081971       -25.96063        0.3081971       -25.96056        0.5345136        115.8746
4.7316                 0.5327098        115.0341        0.3040873       -26.54542        0.3040875       -26.54535        0.5327103         115.034
4.733                   0.530823        114.2069        0.3000098        -27.1348        0.3000099       -27.13473        0.5308236        114.2069
4.7344                 0.5288623         113.393        0.2959576       -27.72799        0.2959578       -27.72791        0.5288629         113.393
4.7358                 0.5268364         112.592        0.2919256       -28.32398        0.2919259       -28.32391        0.5268369         112.592
4.7372                 0.5247532        111.8036        0.2879102       -28.92167        0.2879105       -28.92159        0.5247538        111.8036
4.7386                 0.5226201        111.0272        0.2839094       -29.51984        0.2839097       -29.51977        0.5226207        111.0272
4.74                   0.5204436        110.2625        0.2799225       -30.11728        0.2799228       -30.11721        0.5204442        110.2625
4.7414                 0.5182292        109.5089        0.2759505       -30.71278        0.2759508       -30.71272        0.5182298        109.5089
4.7428                 0.5159816        108.7659        0.2719951       -31.30524        0.2719955       -31.30517        0.5159822        108.7659
4.7442                 0.5137049         108.033        0.2680598       -31.89366        0.2680601        -31.8936        0.5137056         108.033
4.7456                 0.5114025        107.3097         0.264148       -32.47723        0.2641484       -32.47718        0.5114031        107.3097
4.747                   0.509077        106.5955        0.2602644       -33.05536        0.2602648       -33.05532        0.5090776        106.5955
4.7484                 0.5067304        105.8898        0.2564135        -33.6277        0.2564139       -33.62767        0.5067311        105.8898
4.7498                 0.5043645        105.1924        0.2525999       -34.19414        0.2526003       -34.19411        0.5043651        105.1924
4.7512                 0.5019803        104.5028         0.248828       -34.75486        0.2488284       -34.75484        0.5019809        104.5028
4.7526                 0.4995789        103.8205        0.2451017       -35.31029        0.2451021       -35.31027        0.4995795        103.8205
4.754                  0.4971609        103.1454        0.2414242       -35.86111        0.2414246        -35.8611        0.4971614        103.1454
4.7554                 0.4947269        102.4771        0.2377979       -36.40822        0.2377982       -36.40823        0.4947274         102.477
4.7568                 0.4922774        101.8154        0.2342239       -36.95273        0.2342242       -36.95274        0.4922779        101.8154
4.7582                 0.4898131          101.16        0.2307026       -37.49583        0.2307029       -37.49585        0.4898135          101.16
4.7596                 0.4873344         100.511         0.227233       -38.03886        0.2272333       -38.03887        0.4873349         100.511
4.761                  0.4848423        99.86795        0.2238133       -38.58313        0.2238136       -38.58315        0.4848427        99.86798
4.7624                 0.4823375         99.2309        0.2204405       -39.12993        0.2204407       -39.12996         0.482338        99.23093
4.7638                 0.4798213         98.5997        0.2171109       -39.68049        0.2171111       -39.68053        0.4798216         98.5997
4.7652                 0.4772947         97.9742        0.2138199       -40.23586        0.2138201       -40.23589        0.4772951        97.97425
4.7666                 0.4747592        97.35429        0.2105625       -40.79691        0.2105627       -40.79694        0.4747596        97.35432
4.768                  0.4722162        96.73985        0.2073336       -41.36427        0.2073337        -41.3643        0.4722166         96.7399
4.7694                 0.4696675        96.13075        0.2041278       -41.93832        0.2041278       -41.93835        0.4696679         96.1308
4.7708                 0.4671146        95.52676        0.2009398       -42.51916        0.2009398       -42.51918         0.467115        95.52684
4.7722                 0.4645592        94.92775         0.197765       -43.10661         0.197765       -43.10663        0.4645596         94.9278
4.7736                 0.4620029        94.33347         0.194599       -43.70023        0.1945991       -43.70024        0.4620034        94.33355
4.775                  0.4594472         93.7437        0.1914385       -44.29933        0.1914386       -44.29933        0.4594479        93.74375
4.7764                 0.4568938        93.15813        0.1882808         -44.903        0.1882808         -44.903        0.4568944        93.15821
4.7778                 0.4543436        92.57652        0.1851243       -45.51019        0.1851243       -45.51019        0.4543443         92.5766
4.7792                 0.4517978         91.9985        0.1819681       -46.11971        0.1819681        -46.1197        0.4517986        91.99858
4.7806                 0.4492571        91.42376        0.1788128        -46.7303        0.1788128       -46.73029         0.449258        91.42384
4.782                  0.4467222        90.85193        0.1756594       -47.34076        0.1756594       -47.34074        0.4467232        90.85201
4.7834                 0.4441932        90.28267        0.1725102        -47.9499        0.1725102       -47.94987        0.4441943        90.28275
4.7848                 0.4416703         89.7156        0.1693678       -48.55667        0.1693678       -48.55664        0.4416713        89.71564
4.7862                  0.439153        89.15036        0.1662357       -49.16027        0.1662358       -49.16022        0.4391541        89.15041
4.7876                 0.4366411         88.5866        0.1631177       -49.76007        0.1631177       -49.76002        0.4366422        88.58665
4.789                  0.4341336        88.02397        0.1600176       -50.35579        0.1600177       -50.35574        0.4341347          88.024
4.7904                 0.4316296        87.46213        0.1569395       -50.94745        0.1569395       -50.94739        0.4316308        87.46215
4.7918                 0.4291282        86.90075        0.1538868       -51.53543        0.1538869       -51.53538        0.4291294        86.90077
4.7932                  0.426628        86.33962         0.150863       -52.12049        0.1508631       -52.12042        0.4266292        86.33961
4.7946                 0.4241278        85.77837        0.1478706       -52.70368        0.1478707       -52.70363        0.4241289        85.77837
4.796                  0.4216261        85.21685        0.1449114       -53.28644        0.1449116       -53.28639        0.4216271        85.21679
4.7974                 0.4191216        84.65474        0.1419866       -53.87049        0.1419867       -53.87043        0.4191226        84.65473
4.7988                 0.4166129        84.09194        0.1390961       -54.45772        0.1390962       -54.45767        0.4166138        84.09191
4.8002                 0.4140985        83.52821         0.136239       -55.05026        0.1362392       -55.05021        0.4140994        83.52816
4.8016                 0.4115774         82.9634        0.1334136       -55.65029        0.1334138       -55.65025        0.4115782        82.96337
4.803                  0.4090482        82.39738        0.1306172       -56.26001        0.1306174       -56.25998        0.4090489        82.39732
4.8044                 0.4065098           81.83        0.1278461       -56.88157        0.1278464       -56.88152        0.4065103        81.82997
4.8058                 0.4039612        81.26114        0.1250965       -57.51691        0.1250968       -57.51688        0.4039616        81.26111
4.8072                 0.4014015        80.69068        0.1223637       -58.16782         0.122364       -58.16779        0.4014018        80.69065
4.8086                 0.3988298         80.1185        0.1196429       -58.83575        0.1196432       -58.83574        0.3988301        80.11848
4.81                   0.3962454        79.54448        0.1169293       -59.52186        0.1169296       -59.52184        0.3962456        79.54445
4.8114                 0.3936476        78.96847        0.1142182        -60.2269        0.1142184       -60.22691        0.3936478        78.96846
4.8128                 0.3910359        78.39034         0.111505       -60.95132        0.1115053       -60.95133         0.391036        78.39033
4.8142                 0.3884097        77.80995        0.1087861       -61.69512        0.1087863       -61.69513        0.3884098        77.80996
4.8156                 0.3857684        77.22711         0.106058       -62.45798        0.1060582       -62.45802        0.3857684        77.22713
4.817                  0.3831115        76.64166        0.1033184       -63.23932        0.1033186       -63.23934        0.3831116        76.64169
4.8184                 0.3804385        76.05341        0.1005656       -64.03822        0.1005657       -64.03827        0.3804386        76.05346
4.8198                 0.3777488        75.46211       0.09779872       -64.85368       0.09779892       -64.85373        0.3777488        75.46217
4.8212                 0.3750417        74.86758       0.09501807       -65.68453       0.09501825        -65.6846        0.3750418        74.86764
4.8226                 0.3723166        74.26953       0.09222452       -66.52965        0.0922247       -66.52971        0.3723167         74.2696
4.824                  0.3695727        73.66771       0.08941984       -67.38801       0.08941999        -67.3881        0.3695729        73.66781
4.8254                 0.3668091        73.06185        0.0866064       -68.25884       0.08660654       -68.25893        0.3668094        73.06195
4.8268                 0.3640248        72.45166       0.08378715       -69.14167       0.08378727       -69.14176        0.3640252        72.45175
4.8282                 0.3612188         71.8368       0.08096534       -70.03653       0.08096545       -70.03664        0.3612191        71.83691
4.8296                 0.3583899        71.21697        0.0781445       -70.94403        0.0781446       -70.94414        0.3583903        71.21708
4.831                  0.3555366        70.59184       0.07532812        -71.8655       0.07532821       -71.86561        0.3555371        70.59194
4.8324                 0.3526575        69.96105       0.07251956       -72.80311       0.07251962       -72.80325         0.352658        69.96115
4.8338                  0.349751        69.32425       0.06972184       -73.76002        0.0697219       -73.76014        0.3497516        69.32437
4.8352                 0.3468154        68.68109       0.06693753       -74.74038       0.06693757       -74.74052         0.346816         68.6812
4.8366                 0.3438486        68.03118       0.06416857       -75.74964        0.0641686       -75.74978        0.3438493        68.03129
4.838                  0.3408488        67.37418       0.06141626       -76.79445       0.06141627        -76.7946        0.3408495        67.37428
4.8394                 0.3378136        66.70969       0.05868115         -77.883       0.05868114       -77.88314        0.3378143        66.70979
4.8408                 0.3347408        66.03735       0.05596304       -79.02501       0.05596301       -79.02515        0.3347415        66.03743
4.8422                 0.3316278        65.35679       0.05326108         -80.232       0.05326105       -80.23214        0.3316286        65.35686
4.8436                 0.3284722        64.66762       0.05057384       -81.51758       0.05057379       -81.51772        0.3284729         64.6677
4.845                  0.3252711        63.96951       0.04789944        -82.8978       0.04789939       -82.89793        0.3252718        63.96959
4.8464                 0.3220219        63.26209       0.04523582       -84.39167       0.04523576       -84.39178        0.3220227        63.26215
4.8478                 0.3187216          62.545       0.04258094       -86.02201       0.04258087       -86.02212        0.3187223        62.54507
4.8492                 0.3153673        61.81792       0.03993316       -87.81656       0.03993309       -87.81667         0.315368        61.81797
4.8506                  0.311956        61.08053       0.03729164       -89.80971       0.03729155       -89.80981        0.3119566        61.08058
4.852                  0.3084846         60.3325        0.0346568       -92.04488       0.03465672       -92.04495        0.3084852        60.33254
4.8534                 0.3049501        59.57353       0.03203106       -94.57819       0.03203098       -94.57826        0.3049507        59.57356
4.8548                 0.3013495         58.8033       0.02941964       -97.48381       0.02941955       -97.48386          0.30135        58.80335
4.8562                 0.2976796        58.02157       0.02683186       -100.8618       0.02683177       -100.8618        0.2976802         58.0216
4.8576                 0.2939377          57.228       0.02428305       -104.8495       0.02428297       -104.8495        0.2939382        57.22803
4.859                  0.2901206        56.42232       0.02179748       -109.6379        0.0217974       -109.6378        0.2901211        56.42235
4.8604                 0.2862255        55.60422       0.01941299       -115.4923       0.01941291       -115.4922         0.286226        55.60426
4.8618                 0.2822497         54.7734       0.01718825       -122.7713       0.01718817       -122.7712        0.2822501        54.77343
4.8632                 0.2781902        53.92951       0.01521285       -131.9182       0.01521277       -131.9181        0.2781906        53.92954
4.8646                 0.2740443        53.07219       0.01361728       -143.3529        0.0136172       -143.3528        0.2740447        53.07221
4.866                  0.2698092        52.20104        0.0125694       -157.1511       0.01256932        -157.151        0.2698096        52.20106
4.8674                 0.2654823         51.3156       0.01223206       -172.5632       0.01223198       -172.5631        0.2654827        51.31562
4.8688                 0.2610606         50.4154       0.01268026         172.027       0.01268017         172.027         0.261061        50.41541
4.8702                 0.2565413        49.49983       0.01385217        158.2225       0.01385208        158.2225        0.2565416        49.49986
4.8716                 0.2519213         48.5683       0.01559604        146.7495       0.01559594        146.7495        0.2519216        48.56831