! TOUCHSTONE file generated by CST MICROWAVE STUDIO
! Date and time: Sun Dec  1 17:17:06 2024
! Project name: test_tuning.cst
! Parameters = {airCoaxOuterDiameter=3; chamferAngle=45; chamferWidth=24; connectorLength=10; drillingHoleDiameter=4.1; feedLength=60; flareDiameter=130; flareLength=70; gratingDistance=0; gratingGap=1.90274; outletLength=30; polarizerLength=120; probe1Diameter=1.3; probe1Distance=14; probe1Length=12; probe2Diameter=1.3; probe2Distance=0; probe2Length=12; probeLength=12; smaInnerDiameter=1.3; smaOuterDiameter=4.1; transitionCoefficient=1.33; waveguideFeedLength=30; waveguideSide=50; waveguideThickness=3; wireCount=25; wireDiameter=1.17699}
! Header version: 2024
! Port assignment regex: !\s*Touchstone port\s*([0-9]+)\s*=\s*(CST MWS port|CST DES external port|CST DES block port)\s*(.+)\s* \(\"(.*)\"\)(\s*mode\s*([0-9]+))?.*
! Touchstone port assignment:
! Touchstone port 1 = CST MWS port 1 ("Input1")
! Touchstone port 2 = CST MWS port 2 ("Input2")
# GHz S MA R 50
4.6                    0.2088023        -149.441        0.6219845         60.4181        0.6219843        60.41807        0.2088022        -149.441
4.6014                 0.2152449       -150.6206        0.6226994        59.52856        0.6226993        59.52853        0.2152448       -150.6207
4.6028                  0.221734       -151.7934        0.6233184        58.63268        0.6233182        58.63265        0.2217339       -151.7935
4.6042                 0.2282591       -152.9606        0.6238414        57.73098        0.6238413        57.73096        0.2282591       -152.9607
4.6056                 0.2348098       -154.1229        0.6242696        56.82398        0.6242693        56.82396        0.2348098        -154.123
4.607                  0.2413755       -155.2807        0.6246048        55.91208        0.6246046        55.91205        0.2413756       -155.2808
4.6084                 0.2479459       -156.4342        0.6248501         54.9956        0.6248499        54.99557         0.247946       -156.4342
4.6098                 0.2545112        -157.583        0.6250084        54.07479        0.6250081        54.07477        0.2545113       -157.5831
4.6112                  0.261062       -158.7269        0.6250834        53.14981        0.6250832        53.14978        0.2610621        -158.727
4.6126                 0.2675897       -159.8654         0.625079        52.22068        0.6250789        52.22065        0.2675899       -159.8654
4.614                  0.2740867       -160.9976        0.6249991        51.28733        0.6249988        51.28731        0.2740869       -160.9977
4.6154                 0.2805461        -162.123        0.6248468         50.3496        0.6248466        50.34957        0.2805464        -162.123
4.6168                 0.2869624       -163.2406        0.6246255         49.4072        0.6246252        49.40719        0.2869627       -163.2406
4.6182                  0.293331       -164.3497        0.6243375         48.4598        0.6243371        48.45979        0.2933312       -164.3497
4.6196                 0.2996485       -165.4495        0.6239844        47.50695         0.623984        47.50694        0.2996488       -165.4495
4.621                  0.3059132       -166.5393        0.6235666        46.54814        0.6235663        46.54814        0.3059135       -166.5393
4.6224                 0.3121239       -167.6184        0.6230839        45.58284        0.6230836        45.58283        0.3121243       -167.6184
4.6238                 0.3182814       -168.6863        0.6225346        44.61042        0.6225342        44.61041        0.3182816       -168.6863
4.6252                 0.3243868       -169.7425        0.6219156        43.63029        0.6219153        43.63029        0.3243871       -169.7426
4.6266                  0.330443       -170.7869        0.6212228        42.64185        0.6212225        42.64185        0.3304433        -170.787
4.628                  0.3364535       -171.8193        0.6204507         41.6445        0.6204505         41.6445        0.3364538       -171.8193
4.6294                 0.3424227       -172.8396        0.6195925        40.63772        0.6195923        40.63772         0.342423       -172.8397
4.6308                 0.3483557       -173.8482        0.6186404          39.621        0.6186402          39.621         0.348356       -173.8482
4.6322                 0.3542581       -174.8453        0.6175852        38.59394        0.6175851        38.59394        0.3542584       -174.8454
4.6336                 0.3601358       -175.8315        0.6164172        37.55622        0.6164171        37.55622        0.3601362       -175.8316
4.635                  0.3659951       -176.8076        0.6151255        36.50764        0.6151254        36.50764        0.3659953       -176.8077
4.6364                 0.3718418       -177.7743         0.613699         35.4481        0.6136989        35.44811        0.3718422       -177.7744
4.6378                  0.377682       -178.7326        0.6121258        34.37766        0.6121257        34.37766        0.3776823       -178.7327
4.6392                  0.383521       -179.6837        0.6103942        33.29648         0.610394        33.29648        0.3835213       -179.6838
4.6406                 0.3893635        179.3713        0.6084923        32.20489        0.6084923         32.2049        0.3893638        179.3712
4.642                  0.3952137         178.431        0.6064087        31.10337        0.6064087        31.10338         0.395214        178.4309
4.6434                 0.4010746        177.4942        0.6041324        29.99254        0.6041323        29.99255        0.4010749        177.4941
4.6448                 0.4069483        176.5594         0.601653        28.87316         0.601653        28.87317        0.4069486        176.5593
4.6462                 0.4128355        175.6253        0.5989614        27.74614        0.5989614        27.74615        0.4128358        175.6252
4.6476                 0.4187359        174.6905        0.5960493        26.61254        0.5960493        26.61254        0.4187362        174.6904
4.649                  0.4246478        173.7537        0.5929099        25.47352          0.59291        25.47352        0.4246481        173.7536
4.6504                 0.4305681        172.8136        0.5895381        24.33038        0.5895381        24.33038        0.4305684        172.8135
4.6518                 0.4364924        171.8691        0.5859299        23.18454          0.58593        23.18454        0.4364927         171.869
4.6532                  0.442415         170.919        0.5820838         22.0375        0.5820838        22.03749        0.4424153        170.9189
4.6546                  0.448329        169.9624        0.5779996        20.89085        0.5779997        20.89084        0.4483293        169.9623
4.656                  0.4542263        168.9985        0.5736792        19.74625        0.5736794        19.74624        0.4542266        168.9985
4.6574                 0.4600976        168.0267        0.5691267        18.60543        0.5691268        18.60542        0.4600979        168.0266
4.6588                  0.465933        167.0462        0.5643478        17.47014        0.5643479        17.47013        0.4659333        167.0462
4.6602                 0.4717216        166.0569        0.5593503        16.34216        0.5593503        16.34215        0.4717218        166.0569
4.6616                 0.4774518        165.0584         0.554144        15.22327         0.554144        15.22325        0.4774522        165.0584
4.663                  0.4831119        164.0507        0.5487404        14.11524        0.5487405        14.11522        0.4831122        164.0506
4.6644                 0.4886894        163.0337        0.5431528         13.0198        0.5431529        13.01978        0.4886897        163.0337
4.6658                  0.494172        162.0078        0.5373962        11.93863        0.5373962        11.93861        0.4941723        162.0077
4.6672                 0.4995474        160.9732        0.5314867        10.87333        0.5314868        10.87331        0.4995477        160.9731
4.6686                 0.5048034        159.9303        0.5254422        9.825414        0.5254422         9.82539        0.5048038        159.9303
4.67                   0.5099284        158.8797         0.519281         8.79627         0.519281        8.796245        0.5099287        158.8797
4.6714                 0.5149108         157.822        0.5130228         7.78715        0.5130227        7.787124        0.5149111         157.822
4.6728                 0.5197401         156.758        0.5066876        6.799152        0.5066875        6.799126        0.5197405         156.758
4.6742                 0.5244064        155.6884        0.5002959        5.833192        0.5002958        5.833166        0.5244067        155.6884
4.6756                 0.5289004         154.614        0.4938682        4.889996        0.4938682        4.889969        0.5289008        154.6139
4.677                  0.5332141        153.5357         0.487425        3.970072        0.4874249        3.970045        0.5332145        153.5357
4.6784                 0.5373401        152.4545        0.4809862        3.073709         0.480986        3.073683        0.5373405        152.4544
4.6798                 0.5412722        151.3711         0.474571        2.200957        0.4745709        2.200931        0.5412726        151.3711
4.6812                 0.5450053        150.2866        0.4681978        1.351622        0.4681976        1.351597        0.5450056        150.2866
4.6826                 0.5485349        149.2019        0.4618835       0.5252637        0.4618834       0.5252402        0.5485353        149.2019
4.684                  0.5518581        148.1178         0.455644      -0.2788009        0.4556437      -0.2788228        0.5518585        148.1178
4.6854                 0.5549727        147.0353         0.449493       -1.061494        0.4494928       -1.061514        0.5549731        147.0352
4.6868                 0.5578775        145.9551        0.4434428       -1.823961        0.4434426        -1.82398        0.5578779         145.955
4.6882                 0.5605723        144.8781        0.4375036       -2.567558        0.4375034       -2.567574        0.5605727         144.878
4.6896                 0.5630577         143.805        0.4316835        -3.29382        0.4316832       -3.293834        0.5630581        143.8049
4.691                  0.5653349        142.7365        0.4259883       -4.004442        0.4259881       -4.004452        0.5653354        142.7365
4.6924                 0.5674061        141.6734        0.4204219       -4.701235        0.4204217       -4.701244        0.5674067        141.6734
4.6938                 0.5692742        140.6162        0.4149859       -5.386101        0.4149856       -5.386107        0.5692746        140.6162
4.6952                 0.5709422        139.5655        0.4096796       -6.060983        0.4096794       -6.060986        0.5709426        139.5655
4.6966                 0.5724139        138.5218        0.4045008        -6.72783        0.4045006        -6.72783        0.5724145        138.5217
4.698                  0.5736937        137.4855        0.3994449       -7.388551        0.3994447       -7.388551        0.5736941        137.4855
4.6994                 0.5747856        136.4571         0.394506       -8.044974        0.3945059       -8.044974        0.5747861        136.4571
4.7008                 0.5756948         135.437        0.3896768       -8.698861        0.3896766       -8.698861        0.5756953        135.4369
4.7022                 0.5764258        134.4254        0.3849485        -9.35167        0.3849483        -9.35167        0.5764263        134.4253
4.7036                 0.5769838        133.4226        0.3803115       -10.00488        0.3803114       -10.00488        0.5769843        133.4226
4.705                  0.5773739         132.429        0.3757559       -10.65966        0.3757558       -10.65966        0.5773743        132.4289
4.7064                 0.5776013        131.4446        0.3712708       -11.31694        0.3712707       -11.31694        0.5776017        131.4446
4.7078                 0.5776709        130.4698        0.3668456       -11.97742        0.3668455       -11.97737        0.5776713        130.4698
4.7092                 0.5775881        129.5047        0.3624697       -12.64153        0.3624696       -12.64154        0.5775885        129.5047
4.7106                 0.5773579        128.5495         0.358133       -13.30957         0.358133       -13.30956        0.5773583        128.5495
4.712                  0.5769856        127.6042        0.3538261       -13.98145         0.353826       -13.98144         0.576986        127.6042
4.7134                 0.5764762        126.6692        0.3495402       -14.65694        0.3495401       -14.65693        0.5764766        126.6691
4.7148                 0.5758349        125.7443        0.3452676       -15.33555        0.3452676       -15.33555        0.5758352        125.7443
4.7162                 0.5750667          124.83        0.3410019       -16.01664        0.3410019       -16.01663        0.5750671        124.8299
4.7176                 0.5741769        123.9261        0.3367377       -16.69936        0.3367377       -16.69935        0.5741773        123.9261
4.719                  0.5731709        123.0329        0.3324712       -17.38275        0.3324712       -17.38274        0.5731712        123.0329
4.7204                 0.5720539        122.1505        0.3281996       -18.06572        0.3281996       -18.06571        0.5720542        122.1505
4.7218                 0.5708316         121.279        0.3239217       -18.74711        0.3239218       -18.74711        0.5708319        121.2789
4.7232                 0.5695096        120.4185        0.3196377       -19.42573        0.3196377       -19.42573        0.5695099        120.4185
4.7246                 0.5680937         119.569        0.3153486       -20.10036        0.3153486       -20.10036        0.5680941         119.569
4.726                  0.5665902        118.7308         0.311057       -20.76982         0.311057       -20.76982        0.5665904        118.7308
4.7274                 0.5650048        117.9038        0.3067665       -21.43298        0.3067665       -21.43298        0.5650052        117.9038
4.7288                 0.5633445        117.0881        0.3024812        -22.0888        0.3024813        -22.0888        0.5633448        117.0881
4.7302                 0.5616155        116.2838        0.2982065       -22.73637        0.2982065       -22.73638        0.5616158        116.2838
4.7316                 0.5598246        115.4907        0.2939478       -23.37494        0.2939479       -23.37494        0.5598248        115.4907
4.733                  0.5579786        114.7088        0.2897113        -24.0039        0.2897113        -24.0039        0.5579788        114.7088
4.7344                 0.5560845         113.938        0.2855031       -24.62285        0.2855031       -24.62286        0.5560847         113.938
4.7358                  0.554149        113.1781        0.2813294       -25.23163        0.2813294       -25.23164        0.5541493        113.1781
4.7372                 0.5521791         112.429        0.2771961       -25.83026        0.2771961       -25.83027        0.5521794         112.429
4.7386                 0.5501814        111.6903        0.2731088         -26.419        0.2731088       -26.41901        0.5501817        111.6903
4.74                   0.5481624        110.9617        0.2690725       -26.99833        0.2690724       -26.99834        0.5481627        110.9617
4.7414                 0.5461282        110.2428        0.2650914       -27.56895        0.2650914       -27.56896        0.5461284        110.2428
4.7428                 0.5440847        109.5331        0.2611691       -28.13175         0.261169       -28.13176         0.544085        109.5332
4.7442                 0.5420371        108.8322        0.2573079       -28.68781        0.2573078       -28.68782        0.5420374        108.8322
4.7456                 0.5399903        108.1394        0.2535093       -29.23835        0.2535093       -29.23836        0.5399906        108.1394
4.747                  0.5379483        107.4541        0.2497738        -29.7847        0.2497738       -29.78471        0.5379486        107.4541
4.7484                 0.5359146        106.7756        0.2461007        -30.3283        0.2461007       -30.32831         0.535915        106.7756
4.7498                 0.5338921        106.1032        0.2424882       -30.87059        0.2424882        -30.8706        0.5338924        106.1032
4.7512                 0.5318825        105.4363        0.2389337       -31.41303        0.2389337       -31.41304        0.5318828        105.4363
4.7526                 0.5298869        104.7739        0.2354335       -31.95705        0.2354335       -31.95705        0.5298872        104.7739
4.754                  0.5279056        104.1153        0.2319832       -32.50394        0.2319832       -32.50395        0.5279059        104.1153
4.7554                 0.5259382        103.4599        0.2285777       -33.05493        0.2285776       -33.05494        0.5259385        103.4599
4.7568                 0.5239831        102.8069        0.2252113       -33.61103        0.2252113       -33.61104        0.5239835        102.8069
4.7582                 0.5220386        102.1555        0.2218781       -34.17309        0.2218781        -34.1731        0.5220389        102.1555
4.7596                 0.5201015        101.5052         0.218572       -34.74171         0.218572       -34.74172        0.5201018        101.5052
4.761                  0.5181686        100.8553        0.2152867       -35.31729        0.2152868        -35.3173         0.518169        100.8553
4.7624                 0.5162361        100.2053        0.2120164       -35.89992        0.2120164       -35.89994        0.5162365        100.2053
4.7638                 0.5142995        99.55472        0.2087552       -36.48949        0.2087552       -36.48951        0.5142998        99.55471
4.7652                 0.5123541        98.90324         0.205498       -37.08559         0.205498       -37.08561        0.5123545        98.90324
4.7666                 0.5103954        98.25061        0.2022402       -37.68757        0.2022402       -37.68759        0.5103957         98.2506
4.768                  0.5084182        97.59652         0.198978       -38.29455         0.198978       -38.29457        0.5084186        97.59654
4.7694                  0.506418        96.94099        0.1957084       -38.90543        0.1957084       -38.90545        0.5064183        96.94098
4.7708                   0.50439        96.28389        0.1924292       -39.51891        0.1924292       -39.51894        0.5043902        96.28392
4.7722                 0.5023299        95.62537        0.1891393       -40.13355        0.1891393       -40.13357        0.5023302         95.6254
4.7736                  0.500234        94.96559        0.1858385       -40.74774        0.1858385       -40.74778        0.5002343        94.96558
4.775                   0.498099         94.3047        0.1825277       -41.35986        0.1825277        -41.3599        0.4980993        94.30469
4.7764                 0.4959222        93.64302        0.1792084       -41.96819        0.1792084       -41.96823        0.4959224        93.64301
4.7778                 0.4937015        92.98091        0.1758834       -42.57102        0.1758833       -42.57106        0.4937018         92.9809
4.7792                 0.4914359         92.3187        0.1725559        -43.1667        0.1725559       -43.16674        0.4914361         92.3187
4.7806                 0.4891246        91.65679        0.1692303       -43.75368        0.1692302       -43.75372        0.4891249        91.65679
4.782                  0.4867683        90.99559         0.165911       -44.33057        0.1659109        -44.3306        0.4867685        90.99564
4.7834                 0.4843679        90.33556        0.1626033       -44.89614        0.1626032       -44.89618        0.4843681        90.33556
4.7848                 0.4819253        89.67701        0.1593126       -45.44945        0.1593125       -45.44949        0.4819255        89.67701
4.7862                 0.4794431        89.02029        0.1560446       -45.98982        0.1560444       -45.98986        0.4794433        89.02029
4.7876                 0.4769245        88.36566        0.1528046       -46.51692        0.1528045       -46.51695        0.4769247        88.36571
4.789                  0.4743733        87.71343        0.1495982       -47.03075        0.1495981       -47.03078        0.4743735        87.71343
4.7904                 0.4717936        87.06368        0.1464302       -47.53173        0.1464301       -47.53176        0.4717938        87.06368
4.7918                   0.46919        86.41646        0.1433052       -48.02068         0.143305        -48.0207        0.4691901        86.41649
4.7932                 0.4665671        85.77176        0.1402268       -48.49881        0.1402267       -48.49883        0.4665672        85.77176
4.7946                 0.4639295        85.12939        0.1371981       -48.96776         0.137198       -48.96777        0.4639296        85.12939
4.796                   0.461282        84.48911        0.1342211       -49.42953        0.1342209       -49.42953        0.4612821        84.48911
4.7974                 0.4586288        83.85056        0.1312967       -49.88647        0.1312966       -49.88646        0.4586288        83.85057
4.7988                 0.4559739        83.21323         0.128425       -50.34126        0.1284249       -50.34125         0.455974        83.21324
4.8002                 0.4533208        82.57656        0.1256048       -50.79681        0.1256047       -50.79679        0.4533208        82.57656
4.8016                  0.450672        81.93984        0.1228339       -51.25621        0.1228338       -51.25618        0.4506721        81.93986
4.803                  0.4480298        81.30232         0.120109       -51.72264        0.1201089        -51.7226        0.4480299        81.30234
4.8044                 0.4453952        80.66317         0.117426       -52.19931        0.1174259       -52.19926        0.4453952        80.66318
4.8058                 0.4427683        80.02147        0.1147797       -52.68938        0.1147796       -52.68933        0.4427683        80.02149
4.8072                 0.4401484        79.37629        0.1121643       -53.19585        0.1121642       -53.19578        0.4401484        79.37631
4.8086                 0.4375338        78.72666        0.1095735       -53.72147        0.1095734       -53.72139        0.4375338        78.72669
4.81                   0.4349216        78.07166        0.1070005        -54.2687        0.1070004       -54.26863        0.4349216        78.07167
4.8114                 0.4323081         77.4103        0.1044383       -54.83969        0.1044383       -54.83959        0.4323081        77.41033
4.8128                 0.4296888        76.74173        0.1018799       -55.43608        0.1018799       -55.43599        0.4296887        76.74176
4.8142                 0.4270581         76.0651       0.09931846       -56.05914       0.09931847       -56.05904        0.4270581        76.06512
4.8156                   0.42441        75.37961       0.09674737        -56.7096       0.09674738        -56.7095          0.42441        75.37964
4.817                  0.4217377        74.68466       0.09416058       -57.38772       0.09416062       -57.38762        0.4217376        74.68469
4.8184                  0.419034        73.97964       0.09155266       -58.09326       0.09155273       -58.09315         0.419034        73.97967
4.8198                 0.4162915        73.26414       0.08891896       -58.82546       0.08891904       -58.82535        0.4162914        73.26416
4.8212                 0.4135025        72.53782       0.08625566       -59.58312       0.08625577       -59.58301        0.4135024        72.53785
4.8226                 0.4106594        71.80048        0.0835599       -60.36455       0.08356001       -60.36447        0.4106594        71.80051
4.824                  0.4077549        71.05209        0.0808298       -61.16771       0.08082995       -61.16761        0.4077549        71.05215
4.8254                 0.4047819        70.29274       0.07806455        -61.9901       0.07806471       -61.99001        0.4047818        70.29278
4.8268                 0.4017339        69.52256       0.07526433       -62.82894       0.07526451       -62.82887        0.4017337        69.52262
4.8282                 0.3986047        68.74192       0.07243033       -63.68117       0.07243052       -63.68112        0.3986046        68.74197
4.8296                 0.3953895        67.95119       0.06956473       -64.54354       0.06956493       -64.54348        0.3953893        67.95123
4.831                  0.3920837        67.15086       0.06667057       -65.41258       0.06667078       -65.41254        0.3920836         67.1509
4.8324                  0.388684        66.34149       0.06375176       -66.28479       0.06375197       -66.28477        0.3886839        66.34153
4.8338                 0.3851879        65.52369       0.06081283       -67.15669       0.06081306       -67.15669        0.3851878        65.52375
4.8352                  0.381594        64.69812       0.05785895        -68.0249       0.05785918       -68.02493        0.3815939        64.69817
4.8366                 0.3779019        63.86536       0.05489572       -68.88628       0.05489594       -68.88632        0.3779018        63.86542
4.838                   0.374112        63.02607       0.05192898         -69.738       0.05192919       -69.73808        0.3741118        63.02614
4.8394                 0.3702257        62.18082       0.04896472       -70.57787       0.04896493       -70.57796        0.3702256        62.18089
4.8408                 0.3662454        61.33008       0.04600887       -71.40435       0.04600908       -71.40446        0.3662452        61.33015
4.8422                 0.3621739        60.47427        0.0430671       -72.21695        0.0430673       -72.21711        0.3621737        60.47434
4.8436                 0.3580147        59.61365        0.0401447       -73.01653       0.04014488       -73.01672        0.3580146        59.61372
4.845                  0.3537718        58.74836        0.0372463       -73.80569       0.03724647       -73.80593        0.3537716        58.74844
4.8464                 0.3494493        57.87837        0.0343758       -74.58943       0.03437596        -74.5897        0.3494492        57.87844
4.8478                 0.3450515        57.00346       0.03153616       -75.37587        0.0315363        -75.3762        0.3450514        57.00353
4.8492                 0.3405824         56.1232       0.02872926       -76.17758        0.0287294       -76.17795        0.3405823        56.12328
4.8506                 0.3360457        55.23699       0.02595587       -77.01328       0.02595599       -77.01372        0.3360456        55.23706
4.852                  0.3314447        54.34394       0.02321552       -77.91098       0.02321561       -77.91148        0.3314445        54.34402
4.8534                 0.3267816        53.44302       0.02050657        -78.9132       0.02050665       -78.91379        0.3267815        53.44309
4.8548                  0.322058         52.5329       0.01782642       -80.08681       0.01782648       -80.08746        0.3220579        52.53298
4.8562                 0.3172743        51.61208       0.01517184       -81.54287       0.01517189       -81.54365        0.3172741        51.61217
4.8576                 0.3124295        50.67886       0.01253997       -83.48152       0.01254001       -83.48246        0.3124294        50.67895
4.859                  0.3075215        49.73134      0.009930616       -86.30605      0.009930645       -86.30722        0.3075213        49.73142
4.8604                 0.3025464        48.76744      0.007353269       -90.97174      0.007353294       -90.97327        0.3025463        48.76752
4.8618                 0.2974991        47.78498      0.004855522       -100.3581      0.004855563       -100.3603         0.297499        47.78505
4.8632                 0.2923728        46.78162      0.002701746       -126.4826      0.002701849       -126.4859        0.2923727        46.78169
4.8646                 0.2871593        45.75498      0.002371303        168.5428      0.002371483        168.5431        0.2871591        45.75506
4.866                  0.2818487        44.70262      0.004376657        133.6851      0.004376801        133.6864        0.2818485         44.7027
4.8674                 0.2764301        43.62207      0.006980671        121.9852      0.006980796        121.9861        0.2764299        43.62216
4.8688                 0.2708913         42.5109      0.009767255        116.3841      0.009767371        116.3847        0.2708911        42.51099
4.8702                 0.2652188        41.36671       0.01266559        112.9617        0.0126657        112.9621        0.2652186         41.3668
4.8716                 0.2593988        40.18717       0.01565927        110.5114       0.01565938        110.5118        0.2593986        40.18726