! TOUCHSTONE file generated by CST MICROWAVE STUDIO
! Date and time: Sun Dec  1 17:17:02 2024
! Project name: test_tuning.cst
! Parameters = {airCoaxOuterDiameter=3; chamferAngle=45; chamferWidth=24; connectorLength=10; drillingHoleDiameter=4.1; feedLength=60; flareDiameter=130; flareLength=70; gratingDistance=0; gratingGap=1.90274; outletLength=30; polarizerLength=94; probe1Diameter=1.3; probe1Distance=14; probe1Length=12; probe2Diameter=1.3; probe2Distance=0; probe2Length=12; probeLength=12; smaInnerDiameter=1.3; smaOuterDiameter=4.1; transitionCoefficient=1.33; waveguideFeedLength=30; waveguideSide=50; waveguideThickness=3; wireCount=25; wireDiameter=1.17699}
! Header version: 2024
! Port assignment regex: !\s*Touchstone port\s*([0-9]+)\s*=\s*(CST MWS port|CST DES external port|CST DES block port)\s*(.+)\s* \(\"(.*)\"\)(\s*mode\s*([0-9]+))?.*
! Touchstone port assignment:
! Touchstone port 1 = CST MWS port 1 ("Input1")
! Touchstone port 2 = CST MWS port 2 ("Input2")
# GHz S MA R 50
4.6                     0.232341       -162.4642        0.6416664        69.94717        0.6416663        69.94716        0.2323411       -162.4643
4.6014                 0.2396557       -163.4605        0.6432798        69.00565        0.6432795        69.00565        0.2396558       -163.4605
4.6028                 0.2469751       -164.4623        0.6448144        68.05884        0.6448142        68.05883        0.2469753       -164.4623
4.6042                 0.2542928       -165.4695        0.6462689        67.10659        0.6462687        67.10658         0.254293       -165.4695
4.6056                 0.2616022       -166.4819        0.6476411        66.14881        0.6476409        66.14881        0.2616025       -166.4819
4.607                  0.2688967       -167.4993        0.6489286         65.1854        0.6489283         65.1854         0.268897       -167.4993
4.6084                 0.2761697       -168.5215        0.6501287        64.21627        0.6501285        64.21627        0.2761701       -168.5215
4.6098                 0.2834147       -169.5481        0.6512387        63.24138        0.6512385        63.24139        0.2834151       -169.5481
4.6112                 0.2906251       -170.5788        0.6522556        62.26066        0.6522554        62.26067        0.2906255       -170.5788
4.6126                 0.2977947       -171.6131        0.6531761         61.2741        0.6531759        61.27412        0.2977951       -171.6131
4.614                  0.3049172       -172.6506        0.6539968         60.2817        0.6539967        60.28171        0.3049177       -172.6506
4.6154                 0.3119867       -173.6909        0.6547145        59.28349        0.6547142         59.2835        0.3119873       -173.6909
4.6168                 0.3189975       -174.7335        0.6553253         58.2795        0.6553251        58.27953        0.3189981       -174.7336
4.6182                  0.325944       -175.7781         0.655826        57.26983        0.6558258        57.26986        0.3259446       -175.7781
4.6196                  0.332821       -176.8241        0.6562131         56.2546        0.6562129        56.25461        0.3328217       -176.8242
4.621                  0.3396236       -177.8712         0.656483        55.23391        0.6564829        55.23393        0.3396243       -177.8712
4.6224                 0.3463471       -178.9188        0.6566326        54.20794        0.6566326        54.20797        0.3463479       -178.9188
4.6238                 0.3529873       -179.9665        0.6566589        53.17687        0.6566587         53.1769        0.3529881       -179.9665
4.6252                 0.3595401         178.986        0.6565586        52.14091        0.6565586        52.14094        0.3595409        178.9859
4.6266                  0.366002        177.9391        0.6563293         51.1003        0.6563294        51.10033        0.3660028         177.939
4.628                  0.3723696        176.8931        0.6559686         50.0553        0.6559686        50.05534        0.3723704        176.8931
4.6294                 0.3786398        175.8485        0.6554742        49.00618        0.6554743        49.00621        0.3786406        175.8485
4.6308                 0.3848099        174.8055        0.6548446        47.95323        0.6548446        47.95326        0.3848107        174.8054
4.6322                 0.3908776        173.7643        0.6540782        46.89676        0.6540783        46.89678        0.3908784        173.7642
4.6336                 0.3968406        172.7252        0.6531739        45.83709        0.6531741        45.83712        0.3968414        172.7252
4.635                  0.4026971        171.6885        0.6521313        44.77455        0.6521315        44.77458        0.4026978        171.6884
4.6364                 0.4084452        170.6542          0.65095        43.70947        0.6509503         43.7095        0.4084458        170.6541
4.6378                 0.4140834        169.6225        0.6496303         42.6422        0.6496305        42.64223         0.414084        169.6224
4.6392                 0.4196104        168.5936        0.6481728        41.57306         0.648173        41.57309        0.4196111        168.5935
4.6406                 0.4250249        167.5675        0.6465784         40.5024        0.6465787        40.50243        0.4250255        167.5674
4.642                  0.4303257        166.5443        0.6448485        39.43056        0.6448489        39.43058        0.4303263        166.5442
4.6434                 0.4355116        165.5239        0.6429852        38.35784        0.6429855        38.35785        0.4355121        165.5238
4.6448                 0.4405816        164.5065        0.6409904        37.28456        0.6409906        37.28457        0.4405821        164.5064
4.6462                 0.4455345         163.492        0.6388666          36.211        0.6388671        36.21101        0.4455349        163.4919
4.6476                  0.450369        162.4804        0.6366171        35.13746        0.6366175        35.13746        0.4503694        162.4803
4.649                   0.455084        161.4716        0.6342447        34.06417        0.6342451        34.06417        0.4550844        161.4715
4.6504                 0.4596781        160.4656        0.6317529        32.99137        0.6317533        32.99138        0.4596784        160.4655
4.6518                 0.4641498        159.4623        0.6291456        31.91927         0.629146        31.91927        0.4641501        159.4622
4.6532                 0.4684974        158.4617        0.6264266        30.84805        0.6264268        30.84804        0.4684977        158.4616
4.6546                 0.4727193        157.4637        0.6235998        29.77785        0.6236001        29.77784        0.4727195        157.4637
4.656                  0.4768134        156.4683        0.6206695        28.70878        0.6206698        28.70877        0.4768137        156.4683
4.6574                 0.4807778        155.4755          0.61764        27.64093        0.6176402        27.64092        0.4807779        155.4755
4.6588                   0.48461        154.4852        0.6145155        26.57436        0.6145157        26.57434        0.4846102        154.4852
4.6602                 0.4883078        153.4974        0.6113002        25.50907        0.6113004        25.50905        0.4883081        153.4974
4.6616                 0.4918687        152.5122        0.6079985        24.44503        0.6079987        24.44501        0.4918689        152.5122
4.663                  0.4952899        151.5296        0.6046143         23.3822        0.6046145        23.38219        0.4952901        151.5296
4.6644                 0.4985686        150.5497        0.6011517        22.32049        0.6011519        22.32047        0.4985689        150.5496
4.6658                 0.5017023        149.5725        0.5976145        21.25975        0.5976146        21.25973        0.5017025        149.5725
4.6672                 0.5046879        148.5984        0.5940062        20.19984        0.5940063        20.19982        0.5046882        148.5984
4.6686                 0.5075227        147.6274        0.5903302        19.14056        0.5903302        19.14054         0.507523        147.6274
4.67                   0.5102039        146.6597        0.5865895        18.08169        0.5865894        18.08167        0.5102042        146.6597
4.6714                 0.5127288        145.6957        0.5827866        17.02297        0.5827865        17.02295        0.5127291        145.6957
4.6728                  0.515095        144.7356        0.5789243        15.96412        0.5789242         15.9641        0.5150954        144.7356
4.6742                 0.5173002        143.7798        0.5750041        14.90485        0.5750041        14.90483        0.5173006        143.7798
4.6756                 0.5193423        142.8287        0.5710281        13.84483        0.5710281        13.84482        0.5193427        142.8287
4.677                  0.5212196        141.8827        0.5669974        12.78373        0.5669972        12.78372        0.5212199        141.8827
4.6784                 0.5229305        140.9423        0.5629128        11.72119        0.5629126        11.72118         0.522931        140.9423
4.6798                 0.5244743        140.0079        0.5587747        10.65685        0.5587745        10.65684        0.5244748        140.0079
4.6812                 0.5258504        139.0801        0.5545832        9.590336        0.5545831        9.590329         0.525851        139.0802
4.6826                 0.5270589        138.1596         0.550338        8.521288        0.5503378        8.521285        0.5270594        138.1596
4.684                  0.5281003        137.2469        0.5460383        7.449337        0.5460382        7.449337        0.5281008        137.2469
4.6854                 0.5289758        136.3425        0.5416831        6.374123        0.5416829        6.374125        0.5289764        136.3425
4.6868                 0.5296874        135.4473        0.5372711        5.295291        0.5372709        5.295297        0.5296879        135.4473
4.6882                 0.5302374        134.5617        0.5328002         4.21251        0.5328001        4.212518         0.530238        134.5617
4.6896                 0.5306293        133.6866        0.5282687        3.125462        0.5282686        3.125473        0.5306299        133.6866
4.691                  0.5308668        132.8226        0.5236743        2.033852        0.5236741        2.033865        0.5308675        132.8226
4.6924                  0.530955        131.9703        0.5190142       0.9374128         0.519014       0.9374291        0.5309556        131.9703
4.6938                  0.530899        131.1305        0.5142859      -0.1640928        0.5142857      -0.1640744        0.5308997        131.1305
4.6952                 0.5307053        130.3037        0.5094865        -1.27087        0.5094864       -1.270849         0.530706        130.3037
4.6966                 0.5303808        129.4906        0.5046131       -2.383087        0.5046129       -2.383064        0.5303816        129.4906
4.698                  0.5299333        128.6919        0.4996626       -3.500872        0.4996625       -3.500847        0.5299339        128.6918
4.6994                 0.5293712        127.9079        0.4946321        -4.62431         0.494632       -4.624284        0.5293718        127.9079
4.7008                 0.5287036        127.1393        0.4895183       -5.753445        0.4895183       -5.753418        0.5287042        127.1393
4.7022                 0.5279402        126.3865        0.4843186       -6.888277        0.4843186        -6.88825        0.5279407        126.3865
4.7036                 0.5270911        125.6499          0.47903       -8.028733          0.47903       -8.028707        0.5270917        125.6499
4.705                  0.5261674        124.9297        0.4736498       -9.174754        0.4736498       -9.174726         0.526168        124.9297
4.7064                 0.5251802        124.2263        0.4681755       -10.32611        0.4681756       -10.32608        0.5251807        124.2262
4.7078                 0.5241409        123.5396        0.4626051       -11.48267        0.4626051       -11.48264        0.5241413        123.5396
4.7092                 0.5230614        122.8698        0.4569362       -12.64409        0.4569363       -12.64406        0.5230619        122.8698
4.7106                 0.5219535        122.2168        0.4511676       -13.81015        0.4511677       -13.81012        0.5219539        122.2168
4.712                  0.5208292        121.5803        0.4452977        -14.9804        0.4452979       -14.98038        0.5208297        121.5803
4.7134                 0.5197005        120.9601        0.4393258       -16.15445         0.439326       -16.15442        0.5197008        120.9601
4.7148                 0.5185789        120.3558        0.4332512       -17.33179        0.4332514       -17.33177        0.5185793        120.3558
4.7162                 0.5174759        119.7668         0.427074        -18.5119        0.4270742       -18.51188        0.5174762        119.7668
4.7176                 0.5164024        119.1924        0.4207945       -19.69416        0.4207946       -19.69415        0.5164027        119.1924
4.719                  0.5153688        118.6319        0.4144135       -20.87793        0.4144136       -20.87792        0.5153691        118.6319
4.7204                 0.5143848        118.0844        0.4079324       -22.06249        0.4079325       -22.06248        0.5143851        118.0844
4.7218                 0.5134595        117.5489         0.401353       -23.24708        0.4013532       -23.24707        0.5134597        117.5489
4.7232                 0.5126008        117.0243        0.3946777       -24.43086        0.3946779       -24.43085         0.512601        117.0242
4.7246                  0.511816        116.5093        0.3879095       -25.61295        0.3879096       -25.61295        0.5118162        116.5093
4.726                  0.5111111        116.0028        0.3810515       -26.79241        0.3810517       -26.79241        0.5111112        116.0028
4.7274                 0.5104911        115.5033        0.3741079       -27.96825        0.3741081       -27.96825        0.5104913        115.5033
4.7288                 0.5099599        115.0096        0.3670831        -29.1394        0.3670833       -29.13941        0.5099601        115.0096
4.7302                   0.50952        114.5201        0.3599819       -30.30477         0.359982       -30.30477        0.5095201        114.5201
4.7316                 0.5091728        114.0335        0.3528097       -31.46316        0.3528099       -31.46317         0.509173        114.0335
4.733                  0.5089185        113.5482        0.3455726       -32.61336        0.3455727       -32.61337        0.5089187        113.5482
4.7344                  0.508756        113.0629        0.3382767       -33.75409        0.3382768       -33.75411        0.5087562        113.0629
4.7358                 0.5086831        112.5761         0.330929         -34.884        0.3309291       -34.88402        0.5086832        112.5761
4.7372                 0.5086962        112.0865        0.3235366       -36.00169        0.3235367       -36.00171        0.5086963        112.0865
4.7386                  0.508791        111.5927        0.3161072       -37.10571        0.3161073       -37.10574        0.5087912        111.5927
4.74                   0.5089618        111.0936        0.3086487       -38.19455        0.3086488       -38.19457         0.508962        111.0936
4.7414                 0.5092021        110.5879        0.3011695       -39.26663        0.3011696       -39.26665        0.5092024        110.5879
4.7428                 0.5095048        110.0747        0.2936781       -40.32033        0.2936782       -40.32036        0.5095051        110.0747
4.7442                 0.5098616         109.553        0.2861834       -41.35398        0.2861834       -41.35401        0.5098619         109.553
4.7456                 0.5102639        109.0218        0.2786945       -42.36586        0.2786945       -42.36589        0.5102642        109.0219
4.747                  0.5107024        108.4806        0.2712207       -43.35418        0.2712206        -43.3542        0.5107027        108.4807
4.7484                 0.5111675        107.9287        0.2637713        -44.3171        0.2637712       -44.31713        0.5111678        107.9288
4.7498                 0.5116492        107.3657        0.2563559       -45.25279        0.2563558       -45.25281        0.5116494        107.3657
4.7512                 0.5121373         106.791         0.248984       -46.15931         0.248984       -46.15934        0.5121376         106.791
4.7526                 0.5126218        106.2045        0.2416654       -47.03474        0.2416653       -47.03476        0.5126221        106.2046
4.754                  0.5130923        105.6061        0.2344093       -47.87711        0.2344092       -47.87714        0.5130926        105.6062
4.7554                 0.5135388        104.9957        0.2272252       -48.68446        0.2272251       -48.68448        0.5135392        104.9958
4.7568                 0.5139516        104.3734        0.2201225       -49.45477        0.2201224       -49.45479        0.5139521        104.3735
4.7582                 0.5143212        103.7394        0.2131102       -50.18606          0.21311       -50.18608        0.5143216        103.7394
4.7596                 0.5146385        103.0938        0.2061969       -50.87636        0.2061968       -50.87639        0.5146389        103.0938
4.761                  0.5148947        102.4371        0.1993913       -51.52373        0.1993912       -51.52374         0.514895        102.4371
4.7624                 0.5150819        101.7696        0.1927013       -52.12625        0.1927012       -52.12626        0.5150822        101.7697
4.7638                 0.5151924        101.0919        0.1861346       -52.68207        0.1861345       -52.68208        0.5151928        101.0919
4.7652                 0.5152195        100.4044        0.1796984       -53.18941        0.1796983       -53.18942        0.5152199        100.4044
4.7666                 0.5151569        99.70771        0.1733991       -53.64658         0.173399       -53.64658        0.5151572        99.70771
4.768                  0.5149991        99.00251        0.1672428         -54.052        0.1672427       -54.05201        0.5149994        99.00251
4.7694                 0.5147411        98.28937        0.1612347       -54.40421        0.1612346       -54.40421        0.5147415         98.2894
4.7708                  0.514379        97.56906        0.1553794       -54.70189        0.1553793       -54.70189        0.5143793        97.56908
4.7722                 0.5139094         96.8422        0.1496808       -54.94388        0.1496807       -54.94388        0.5139097        96.84222
4.7736                 0.5133296        96.10954        0.1441418       -55.12916        0.1441416       -55.12915        0.5133299        96.10957
4.775                  0.5126377        95.37178        0.1387646        -55.2569        0.1387644       -55.25688        0.5126379        95.37178
4.7764                 0.5118323        94.62963        0.1335505       -55.32642        0.1335504        -55.3264        0.5118325        94.62963
4.7778                  0.510913        93.88374           0.1285       -55.33722        0.1284999       -55.33719        0.5109132        93.88377
4.7792                 0.5098798        93.13489        0.1236128       -55.28893        0.1236127        -55.2889          0.50988        93.13492
4.7806                 0.5087333        92.38375        0.1188876       -55.18132        0.1188875       -55.18129        0.5087336        92.38375
4.782                  0.5074749        91.63084        0.1143224       -55.01423        0.1143223       -55.01419        0.5074752        91.63086
4.7834                 0.5061064        90.87691        0.1099142       -54.78755        0.1099141       -54.78751        0.5061066        90.87694
4.7848                 0.5046298        90.12249        0.1056597       -54.50117        0.1056596       -54.50111        0.5046301        90.12249
4.7862                 0.5030481        89.36815        0.1015546       -54.15485        0.1015545        -54.1548        0.5030483        89.36818
4.7876                 0.5013643        88.61442        0.0975943       -53.74825       0.09759421       -53.74818        0.5013646        88.61444
4.789                  0.4995819        87.86173       0.09377356       -53.28069       0.09377348       -53.28063        0.4995821        87.86175
4.7904                 0.4977045         87.1106         0.090087       -52.75121       0.09008692       -52.75115        0.4977048        87.11063
4.7918                 0.4957364        86.36132       0.08652898       -52.15833       0.08652891       -52.15826        0.4957366        86.36137
4.7932                 0.4936815        85.61432       0.08309387       -51.49997       0.08309381       -51.49989        0.4936817        85.61435
4.7946                 0.4915443         84.8699       0.07977618       -50.77336       0.07977613       -50.77327        0.4915445        84.86993
4.796                  0.4893293        84.12829       0.07657065       -49.97486       0.07657061       -49.97477        0.4893295        84.12832
4.7974                 0.4870408        83.38973       0.07347254        -49.0999        0.0734725       -49.09981        0.4870411        83.38976
4.7988                 0.4846835        82.65434       0.07047767       -48.14279       0.07047764        -48.1427        0.4846838        82.65439
4.8002                 0.4822618        81.92231       0.06758271       -47.09667       0.06758269       -47.09656        0.4822621        81.92234
4.8016                 0.4797801        81.19367       0.06478521       -45.95338       0.06478521       -45.95328        0.4797803        81.19369
4.803                  0.4772426        80.46848       0.06208391       -44.70343       0.06208391       -44.70332        0.4772428        80.46851
4.8044                 0.4746536        79.74674       0.05947875       -43.33597       0.05947876       -43.33586        0.4746538        79.74678
4.8058                 0.4720169        79.02842       0.05697113       -41.83882       0.05697114       -41.83872        0.4720171        79.02846
4.8072                 0.4693364        78.31345       0.05456396       -40.19864       0.05456399       -40.19853        0.4693366        78.31349
4.8086                 0.4666156        77.60172       0.05226184       -38.40113       0.05226187       -38.40102        0.4666158        77.60175
4.81                   0.4638579        76.89309       0.05007109       -36.43155       0.05007112       -36.43145         0.463858        76.89313
4.8114                 0.4610662        76.18743        0.0479998       -34.27527       0.04799984       -34.27516        0.4610664        76.18745
4.8128                 0.4582434        75.48452       0.04605783       -31.91877       0.04605788       -31.91868        0.4582436        75.48455
4.8142                 0.4553921        74.78418       0.04425664       -29.35084       0.04425669       -29.35074        0.4553923        74.78421
4.8156                 0.4525145        74.08619       0.04260909       -26.56411       0.04260915       -26.56402        0.4525147        74.08622
4.817                  0.4496127        73.39032       0.04112898       -23.55694       0.04112904       -23.55685         0.449613        73.39035
4.8184                 0.4466885        72.69631       0.03983051       -20.33526       0.03983056       -20.33519        0.4466887        72.69632
4.8198                 0.4437433        72.00391       0.03872743       -16.91441       0.03872749       -16.91435        0.4437435        72.00394
4.8212                 0.4407785        71.31288       0.03783218       -13.32032       0.03783224       -13.32027        0.4407786        71.31291
4.8226                 0.4377949        70.62297       0.03715478       -9.589716       0.03715483        -9.58967         0.437795        70.62298
4.824                  0.4347936        69.93389       0.03670184       -5.769029       0.03670187       -5.768989        0.4347937        69.93391
4.8254                 0.4317751        69.24541       0.03647575        -1.91178       0.03647578       -1.911742        0.4317752        69.24542
4.8268                   0.42874        68.55726       0.03647422        1.925224       0.03647426        1.925263          0.42874        68.55729
4.8282                 0.4256883        67.86923       0.03669025        5.686303       0.03669029        5.686344        0.4256884        67.86925
4.8296                 0.4226205        67.18105       0.03711252        9.321116       0.03711255        9.321161        0.4226205        67.18108
4.831                  0.4195364        66.49252       0.03772618        12.78794       0.03772621        12.78799        0.4195364        66.49253
4.8324                  0.416436        65.80342       0.03851387        16.05554       0.03851391         16.0556         0.416436        65.80343
4.8338                 0.4133192        65.11352       0.03945681        19.10365       0.03945685        19.10372        0.4133192        65.11354
4.8352                 0.4101857        64.42266       0.04053577        21.92217        0.0405358        21.92224        0.4101857        64.42269
4.8366                 0.4070353        63.73065       0.04173189        24.50968       0.04173193        24.50975        0.4070353        63.73068
4.838                  0.4038677        63.03732       0.04302734        26.87152        0.0430274        26.87159        0.4038676        63.03734
4.8394                 0.4006824         62.3425       0.04440574        29.01793        0.0444058        29.01801        0.4006823        62.34253
4.8408                 0.3974792        61.64606       0.04585235        30.96236       0.04585242        30.96244        0.3974792        61.64609
4.8422                 0.3942578        60.94786       0.04735422        32.72003        0.0473543        32.72011        0.3942578         60.9479
4.8436                  0.391018        60.24777        0.0489002        34.30692        0.0489003          34.307        0.3910179         60.2478
4.845                  0.3877592        59.54567       0.05048087        35.73896       0.05048097        35.73903        0.3877591         59.5457
4.8464                 0.3844815        58.84144       0.05208841        37.03148       0.05208852        37.03154        0.3844814        58.84147
4.8478                 0.3811845        58.13496       0.05371652        38.19888       0.05371666        38.19894        0.3811843        58.13501
4.8492                  0.377868        57.42617       0.05536028        39.25444       0.05536043        39.25449        0.3778679         57.4262
4.8506                 0.3745321        56.71491       0.05701597        40.21022       0.05701612        40.21025         0.374532        56.71496
4.852                  0.3711766        56.00112       0.05868094        41.07699       0.05868111        41.07701        0.3711764        56.00117
4.8534                 0.3678013         55.2847       0.06035349        41.86434       0.06035367        41.86434        0.3678012        55.28474
4.8548                 0.3644066        54.56552       0.06203278         42.5806       0.06203296        42.58059        0.3644065        54.56557
4.8562                 0.3609923        53.84349       0.06371858        43.23303       0.06371876        43.23301        0.3609922        53.84354
4.8576                 0.3575587         53.1185       0.06541125        43.82786       0.06541145        43.82782        0.3575585        53.11855
4.859                  0.3541058        52.39043       0.06711163        44.37033       0.06711183        44.37029        0.3541056        52.39048
4.8604                 0.3506339        51.65913       0.06882085        44.86487       0.06882104        44.86481        0.3506337        51.65919
4.8618                  0.347143        50.92449       0.07054029        45.31512       0.07054049        45.31505        0.3471428        50.92454
4.8632                 0.3436337        50.18635       0.07227151        45.72403        0.0722717        45.72394        0.3436335         50.1864
4.8646                 0.3401059        49.44454       0.07401604        46.09399       0.07401624        46.09389        0.3401057         49.4446
4.866                    0.33656        48.69889       0.07577549        46.42687       0.07577567        46.42676        0.3365598        48.69895
4.8674                 0.3329963        47.94922       0.07755128        46.72412       0.07755145          46.724        0.3329961        47.94927
4.8688                 0.3294149        47.19531       0.07934474        46.98685        0.0793449        46.98672        0.3294146        47.19536
4.8702                  0.325816        46.43693       0.08115699         47.2159       0.08115714        47.21576        0.3258158        46.43699
4.8716                    0.3222        45.67384        0.0829889        47.41189       0.08298905        47.41175        0.3221997        45.67391