! TOUCHSTONE file generated by CST MICROWAVE STUDIO
! Date and time: Sun Dec  1 17:17:05 2024
! Project name: test_tuning.cst
! Parameters = {airCoaxOuterDiameter=3; chamferAngle=45; chamferWidth=24; connectorLength=10; drillingHoleDiameter=4.1; feedLength=60; flareDiameter=130; flareLength=70; gratingDistance=0; gratingGap=1.90274; outletLength=30; polarizerLength=116; probe1Diameter=1.3; probe1Distance=14; probe1Length=12; probe2Diameter=1.3; probe2Distance=0; probe2Length=12; probeLength=12; smaInnerDiameter=1.3; smaOuterDiameter=4.1; transitionCoefficient=1.33; waveguideFeedLength=30; waveguideSide=50; waveguideThickness=3; wireCount=25; wireDiameter=1.17699}
! Header version: 2024
! Port assignment regex: !\s*Touchstone port\s*([0-9]+)\s*=\s*(CST MWS port|CST DES external port|CST DES block port)\s*(.+)\s* \(\"(.*)\"\)(\s*mode\s*([0-9]+))?.*
! Touchstone port assignment:
! Touchstone port 1 = CST MWS port 1 ("Input1")
! Touchstone port 2 = CST MWS port 2 ("Input2")
# GHz S MA R 50
4.6                    0.1928911       -151.8249        0.6484215        60.45085        0.6484219        60.45087        0.1928911       -151.8249
4.6014                 0.1989409       -153.0152        0.6490352        59.56803        0.6490357        59.56803        0.1989411       -153.0153
4.6028                 0.2050348       -154.1847        0.6496123        58.68016        0.6496128        58.68016        0.2050351       -154.1848
4.6042                 0.2111687       -155.3364         0.650153        57.78681        0.6501536         57.7868        0.2111692       -155.3364
4.6056                 0.2173383       -156.4728        0.6506564        56.88748        0.6506569        56.88747        0.2173388       -156.4728
4.607                  0.2235385       -157.5961        0.6511206         55.9817        0.6511212        55.98169         0.223539       -157.5962
4.6084                 0.2297638       -158.7084        0.6515432        55.06899        0.6515437        55.06896        0.2297644       -158.7085
4.6098                 0.2360084       -159.8112        0.6519202        54.14888        0.6519207        54.14885         0.236009       -159.8113
4.6112                 0.2422663       -160.9058        0.6522472        53.22094        0.6522476        53.22093         0.242267       -160.9059
4.6126                 0.2485312       -161.9932        0.6525188        52.28483        0.6525192         52.2848        0.2485319       -161.9933
4.614                  0.2547967       -163.0742        0.6527292         51.3402        0.6527295        51.34017        0.2547973       -163.0743
4.6154                 0.2610565       -164.1493        0.6528717        50.38683        0.6528721         50.3868        0.2610572       -164.1495
4.6168                 0.2673045        -165.219        0.6529401        49.42451        0.6529403        49.42447        0.2673051       -165.2192
4.6182                 0.2735346       -166.2835         0.652927        48.45313        0.6529271         48.4531        0.2735352       -166.2837
4.6196                 0.2797412       -167.3429        0.6528254        47.47266        0.6528256        47.47263        0.2797418        -167.343
4.621                  0.2859193       -168.3971        0.6526286        46.48311        0.6526288        46.48308        0.2859197       -168.3973
4.6224                 0.2920637       -169.4462          0.65233        45.48458        0.6523301        45.48455        0.2920641       -169.4463
4.6238                 0.2981703       -170.4899        0.6519232         44.4772        0.6519232        44.47717        0.2981707       -170.4901
4.6252                 0.3042353       -171.5281        0.6514023        43.46115        0.6514023        43.46112        0.3042356       -171.5283
4.6266                 0.3102553       -172.5606         0.650762        42.43665        0.6507619        42.43664        0.3102555       -172.5608
4.628                  0.3162278       -173.5873        0.6499975        41.40397        0.6499974        41.40394        0.3162279       -173.5874
4.6294                 0.3221504       -174.6078        0.6491045        40.36333        0.6491044        40.36331        0.3221505        -174.608
4.6308                 0.3280217       -175.6222        0.6480793        39.31502        0.6480793        39.31501        0.3280217       -175.6223
4.6322                 0.3338404       -176.6302        0.6469187         38.2593        0.6469186        38.25929        0.3338405       -176.6303
4.6336                  0.339606       -177.6318        0.6456198        37.19641        0.6456198        37.19641         0.339606       -177.6319
4.635                  0.3453179       -178.6269        0.6441803         36.1266        0.6441802        36.12659        0.3453179        -178.627
4.6364                 0.3509764       -179.6156        0.6425978        35.05004        0.6425978        35.05004        0.3509764       -179.6156
4.6378                 0.3565819        179.4022        0.6408704        33.96696        0.6408703        33.96696        0.3565819        179.4021
4.6392                 0.3621349        178.4262         0.638996        32.87749         0.638996        32.87749         0.362135        178.4262
4.6406                 0.3676364        177.4564        0.6369725        31.78177        0.6369724        31.78177        0.3676365        177.4564
4.642                  0.3730873        176.4926        0.6347977        30.67991        0.6347978        30.67991        0.3730875        176.4926
4.6434                 0.3784889        175.5346        0.6324691        29.57203        0.6324692        29.57203        0.3784891        175.5346
4.6448                 0.3838423         174.582         0.629984        28.45822        0.6299841        28.45823        0.3838426         174.582
4.6462                 0.3891487        173.6346        0.6273389         27.3386         0.627339         27.3386         0.389149        173.6346
4.6476                 0.3944096        172.6921        0.6245305        26.21329        0.6245306        26.21328        0.3944099        172.6921
4.649                  0.3996259        171.7541        0.6215546        25.08245        0.6215547        25.08245        0.3996263        171.7541
4.6504                  0.404799        170.8202        0.6184071        23.94629        0.6184073        23.94629        0.4047995        170.8201
4.6518                 0.4099301          169.89        0.6150833        22.80508        0.6150835        22.80507        0.4099307          169.89
4.6532                 0.4150201        168.9631        0.6115784        21.65915        0.6115786        21.65914        0.4150207         168.963
4.6546                   0.42007         168.039        0.6078877        20.50894        0.6078876        20.50893        0.4200706         168.039
4.656                  0.4250804        167.1173         0.604006        19.35496        0.6040061        19.35495        0.4250812        167.1173
4.6574                 0.4300522        166.1975        0.5999292        18.19785        0.5999292        18.19784        0.4300529        166.1975
4.6588                 0.4349856        165.2791         0.595653        17.03836         0.595653        17.03834        0.4349863         165.279
4.6602                 0.4398809        164.3616        0.5911739        15.87735         0.591174        15.87733        0.4398817        164.3615
4.6616                  0.444738        163.4444        0.5864894        14.71582        0.5864894         14.7158        0.4447388        163.4444
4.663                  0.4495566         162.527        0.5815976         13.5549        0.5815976        13.55488        0.4495574         162.527
4.6644                 0.4543358        161.6089        0.5764983        12.39583        0.5764983        12.39581        0.4543366        161.6088
4.6658                 0.4590747        160.6894        0.5711924        11.23998        0.5711923        11.23996        0.4590753        160.6894
4.6672                 0.4637714        159.7681        0.5656824        10.08882        0.5656822        10.08881        0.4637721         159.768
4.6686                 0.4684241        158.8443        0.5599723        8.943953        0.5599722        8.943936        0.4684247        158.8442
4.67                     0.47303        157.9174        0.5540684        7.807032        0.5540682        7.807015        0.4730306        157.9174
4.6714                 0.4775859         156.987        0.5479784        6.679794        0.5479782         6.67978        0.4775864        156.9869
4.6728                 0.4820878        156.0524         0.541712        5.564031        0.5417118        5.564019        0.4820883        156.0524
4.6742                 0.4865313        155.1132         0.535281        4.461556        0.5352809        4.461545        0.4865318        155.1131
4.6756                 0.4909112        154.1688        0.5286989        3.374185        0.5286988        3.374178        0.4909115        154.1688
4.677                  0.4952212        153.2189         0.521981        2.303711        0.5219808        2.303706        0.4952216        153.2188
4.6784                 0.4994549         152.263        0.5151443        1.251869        0.5151442        1.251867        0.4994552        152.2629
4.6798                 0.5036049        151.3008        0.5082073         0.22031        0.5082071       0.2203106        0.5036052        151.3007
4.6812                 0.5076631         150.332        0.5011896      -0.7894324        0.5011894      -0.7894292        0.5076634         150.332
4.6826                  0.511621        149.3565        0.4941118       -1.775975        0.4941117        -1.77597        0.5116213        149.3565
4.684                  0.5154694        148.3742        0.4869956       -2.738119        0.4869955       -2.738111        0.5154698        148.3741
4.6854                 0.5191987         147.385        0.4798628       -3.674874        0.4798627       -3.674865        0.5191991         147.385
4.6868                  0.522799         146.389        0.4727353       -4.585494        0.4727352       -4.585483        0.5227995         146.389
4.6882                 0.5262603        145.3865        0.4656349       -5.469498        0.4656347       -5.469487        0.5262607        145.3865
4.6896                 0.5295719        144.3777        0.4585825       -6.326694        0.4585824       -6.326682        0.5295724        144.3777
4.691                  0.5327238         143.363        0.4515982        -7.15719        0.4515982       -7.157179        0.5327243         143.363
4.6924                  0.535706        142.3429         0.444701       -7.961407        0.4447009       -7.961396        0.5357065        142.3429
4.6938                 0.5385085         141.318        0.4379077       -8.740076        0.4379077       -8.740066         0.538509         141.318
4.6952                 0.5411222        140.2891        0.4312337       -9.494237        0.4312337       -9.494226        0.5411228        140.2891
4.6966                 0.5435383        139.2568         0.424692       -10.22521         0.424692       -10.22521        0.5435389        139.2568
4.698                  0.5457491        138.2222        0.4182931        -10.9346        0.4182931        -10.9346        0.5457497        138.2222
4.6994                 0.5477474        137.1862        0.4120452       -11.62421        0.4120452       -11.62421        0.5477481        137.1862
4.7008                 0.5495277        136.1497        0.4059536       -12.29606        0.4059536       -12.29606        0.5495284        136.1497
4.7022                 0.5510849         135.114        0.4000213       -12.95229        0.4000213       -12.95229        0.5510856         135.114
4.7036                 0.5524159        134.0802        0.3942486       -13.59513        0.3942486       -13.59513        0.5524166        134.0801
4.705                  0.5535184        133.0494        0.3886334       -14.22692        0.3886333       -14.22692        0.5535192        133.0493
4.7064                 0.5543922        132.0228        0.3831712       -14.84979        0.3831711       -14.84979         0.554393        132.0228
4.7078                 0.5550382        131.0018        0.3778557       -15.46596        0.3778556       -15.46596        0.5550389        131.0018
4.7092                 0.5554587        129.9875        0.3726788       -16.07747        0.3726788       -16.07747        0.5554594        129.9875
4.7106                 0.5556577        128.9811        0.3676311       -16.68611         0.367631       -16.68611        0.5556583        128.9811
4.712                   0.555641        127.9838        0.3627019       -17.29354        0.3627018       -17.29354        0.5556416        127.9838
4.7134                 0.5554154        126.9966        0.3578802        -17.9011        0.3578801        -17.9011        0.5554159        126.9966
4.7148                 0.5549893        126.0207        0.3531545        -18.5099        0.3531544        -18.5099        0.5549898        126.0206
4.7162                 0.5543721        125.0569        0.3485132       -19.12073        0.3485131       -19.12073        0.5543726        125.0568
4.7176                 0.5535748        124.1061        0.3439455       -19.73412        0.3439454       -19.73412        0.5535752        124.1061
4.719                  0.5526089        123.1691        0.3394407       -20.35031        0.3394406        -20.3503        0.5526093         123.169
4.7204                 0.5514867        122.2464        0.3349897       -20.96927        0.3349895       -20.96926        0.5514871        122.2464
4.7218                 0.5502214        121.3386        0.3305837       -21.59075        0.3305836       -21.59073        0.5502217        121.3386
4.7232                 0.5488263         120.446        0.3262159       -22.21429        0.3262158       -22.21427        0.5488265         120.446
4.7246                 0.5473147        119.5688        0.3218805       -22.83927        0.3218804       -22.83925         0.547315        119.5688
4.726                  0.5457004         118.707        0.3175731       -23.46493        0.3175731       -23.46491        0.5457007         118.707
4.7274                 0.5439964        117.8607        0.3132909       -24.09047        0.3132908       -24.09045        0.5439966        117.8606
4.7288                 0.5422152        117.0294        0.3090321         -24.715        0.3090321       -24.71498        0.5422155        117.0294
4.7302                  0.540369        116.2129        0.3047965       -25.33768        0.3047965       -25.33766        0.5403693        116.2129
4.7316                 0.5384687        115.4107        0.3005847        -25.9577        0.3005847       -25.95768         0.538469        115.4107
4.733                  0.5365245        114.6222        0.2963984       -26.57434        0.2963984       -26.57432        0.5365248        114.6221
4.7344                 0.5345452        113.8466          0.29224         -27.187          0.29224       -27.18698        0.5345455        113.8466
4.7358                 0.5325384        113.0833        0.2881122       -27.79522        0.2881122       -27.79521        0.5325387        113.0833
4.7372                 0.5305106        112.3314        0.2840182       -28.39871        0.2840183       -28.39871        0.5305109        112.3315
4.7386                 0.5284667        111.5902        0.2799613       -28.99737        0.2799613       -28.99737        0.5284671        111.5902
4.74                   0.5264106        110.8586        0.2759445       -29.59126        0.2759445       -29.59126        0.5264109        110.8586
4.7414                 0.5243446        110.1359        0.2719705       -30.18063        0.2719705       -30.18064         0.524345        110.1359
4.7428                 0.5222701        109.4212        0.2680416       -30.76592        0.2680416       -30.76593        0.5222705        109.4212
4.7442                 0.5201873        108.7138        0.2641596       -31.34768        0.2641596       -31.34769        0.5201877        108.7139
4.7456                 0.5180955        108.0131        0.2603253        -31.9266        0.2603253       -31.92662        0.5180959        108.0131
4.747                  0.5159933        107.3183        0.2565389       -32.50349        0.2565389       -32.50351        0.5159938        107.3183
4.7484                 0.5138788        106.6289        0.2527998       -33.07918        0.2527998       -33.07921        0.5138793         106.629
4.7498                 0.5117495        105.9446        0.2491067       -33.65454        0.2491066       -33.65456          0.51175        105.9446
4.7512                 0.5096028         105.265        0.2454573       -34.23042        0.2454572       -34.23044        0.5096034         105.265
4.7526                 0.5074361        104.5898         0.241849        -34.8076        0.2418489       -34.80763        0.5074366        104.5898
4.754                  0.5052469         103.919        0.2382786        -35.3868        0.2382785       -35.38683        0.5052474         103.919
4.7554                  0.503033        103.2525        0.2347424        -35.9686        0.2347423       -35.96862        0.5030335        103.2525
4.7568                 0.5007928        102.5904        0.2312365       -36.55343        0.2312363       -36.55344        0.5007932        102.5904
4.7582                  0.498525        101.9327        0.2277571       -37.14156        0.2277569       -37.14157        0.4985254        101.9328
4.7596                 0.4962291        101.2797        0.2243002       -37.73308           0.2243       -37.73309        0.4962295        101.2797
4.761                  0.4939055        100.6316        0.2208623       -38.32791        0.2208621       -38.32792        0.4939058        100.6316
4.7624                 0.4915548        99.98846        0.2174402       -38.92578          0.21744       -38.92578        0.4915551        99.98848
4.7638                 0.4891788        99.35067        0.2140312       -39.52628        0.2140311       -39.52626        0.4891791        99.35067
4.7652                 0.4867799        98.71833        0.2106332       -40.12883         0.210633        -40.1288        0.4867802        98.71836
4.7666                 0.4843609        98.09163        0.2072448       -40.73275        0.2072446       -40.73272        0.4843613        98.09168
4.768                  0.4819254        97.47073        0.2038652       -41.33727         0.203865       -41.33723        0.4819256        97.47073
4.7694                 0.4794771        96.85559        0.2004943       -41.94157        0.2004942       -41.94153        0.4794773        96.85559
4.7708                 0.4770203        96.24621         0.197133       -42.54483        0.1971329       -42.54478        0.4770206        96.24623
4.7722                 0.4745591        95.64249        0.1937825       -43.14624        0.1937824       -43.14618        0.4745594        95.64251
4.7736                 0.4720979         95.0442        0.1904447       -43.74509        0.1904446       -43.74503        0.4720982        95.04422
4.775                  0.4696407        94.45103        0.1871219       -44.34076        0.1871218       -44.34069         0.469641        94.45105
4.7764                 0.4671914        93.86256        0.1838168       -44.93277        0.1838168       -44.93272        0.4671917        93.86259
4.7778                 0.4647531        93.27829        0.1805322       -45.52087        0.1805322        -45.5208        0.4647534        93.27832
4.7792                 0.4623286        92.69773        0.1772712       -46.10494        0.1772713       -46.10488        0.4623289        92.69775
4.7806                   0.45992        92.12021        0.1740365       -46.68514        0.1740366       -46.68509        0.4599203        92.12023
4.782                  0.4575286        91.54504        0.1708307       -47.26185        0.1708308       -47.26181        0.4575289        91.54506
4.7834                 0.4551546        90.97152        0.1676561       -47.83568        0.1676562       -47.83563        0.4551549        90.97154
4.7848                 0.4527979        90.39893        0.1645143       -48.40745        0.1645144       -48.40741        0.4527982        90.39896
4.7862                 0.4504572        89.82653        0.1614066       -48.97819        0.1614067       -48.97818        0.4504575        89.82656
4.7876                 0.4481304        89.25363        0.1583334       -49.54915        0.1583335       -49.54914        0.4481307        89.25366
4.789                  0.4458149        88.67956        0.1552945       -50.12166        0.1552947       -50.12166        0.4458152        88.67959
4.7904                 0.4435071        88.10371        0.1522892       -50.69718        0.1522893       -50.69719        0.4435075        88.10374
4.7918                 0.4412034        87.52557        0.1493158       -51.27722        0.1493159       -51.27724        0.4412038         87.5256
4.7932                 0.4388994        86.94467         0.146372       -51.86328        0.1463721       -51.86331        0.4388997         86.9447
4.7946                 0.4365905         86.3607        0.1434552        -52.4568        0.1434552       -52.45685        0.4365908         86.3607
4.796                  0.4342721        85.77338         0.140562       -53.05914         0.140562       -53.05919        0.4342724         85.7734
4.7974                 0.4319396        85.18256        0.1376889       -53.67148        0.1376889       -53.67154        0.4319398        85.18256
4.7988                 0.4295886        84.58823        0.1348322       -54.29483        0.1348322        -54.2949        0.4295888        84.58824
4.8002                  0.427215        83.99038        0.1319879       -54.92998        0.1319879       -54.93005        0.4272152        83.99038
4.8016                 0.4248152        83.38918        0.1291524       -55.57746        0.1291523       -55.57752        0.4248153        83.38918
4.803                  0.4223862        82.78479         0.126322       -56.23754        0.1263219        -56.2376        0.4223863        82.78481
4.8044                 0.4199256        82.17752        0.1234936       -56.91025        0.1234934       -56.91031        0.4199257        82.17754
4.8058                 0.4174316        81.56766        0.1206643       -57.59538        0.1206641       -57.59543        0.4174316        81.56767
4.8072                 0.4149034        80.95551         0.117832       -58.29246        0.1178318        -58.2925        0.4149033        80.95554
4.8086                 0.4123404        80.34145         0.114995       -59.00087        0.1149948        -59.0009        0.4123404        80.34145
4.81                   0.4097434        79.72572        0.1121524       -59.71979        0.1121521       -59.71981        0.4097433        79.72575
4.8114                 0.4071133        79.10865        0.1093038       -60.44836        0.1093036       -60.44836        0.4071132        79.10868
4.8128                 0.4044518        78.49043        0.1064496       -61.18564        0.1064494       -61.18562        0.4044517        78.49046
4.8142                  0.401761        77.87121        0.1035908       -61.93072        0.1035905       -61.93068        0.4017609        77.87125
4.8156                 0.3990434        77.25106        0.1007288       -62.68278        0.1007286       -62.68273        0.3990432        77.25109
4.817                  0.3963015        76.62992        0.0978656       -63.44121       0.09786538       -63.44113        0.3963014        76.62997
4.8184                 0.3935382        76.00766        0.0950035       -64.20559        0.0950033        -64.2055        0.3935381        76.00772
4.8198                 0.3907561        75.38401       0.09214503       -64.97583       0.09214483       -64.97574         0.390756        75.38408
4.8212                 0.3879576        74.75861        0.0892928       -65.75229       0.08929263       -65.75216        0.3879575        74.75868
4.8226                 0.3851446        74.13096       0.08644942       -66.53569       0.08644927       -66.53555        0.3851446        74.13103
4.824                  0.3823188        73.50048       0.08361732       -67.32735       0.08361719       -67.32719        0.3823188        73.50055
4.8254                 0.3794809         72.8665       0.08079861       -68.12914       0.08079853       -68.12898        0.3794809        72.86658
4.8268                 0.3766313        72.22825       0.07799506       -68.94355       0.07799499       -68.94339        0.3766313        72.22832
4.8282                 0.3737692        71.58492       0.07520787       -69.77378       0.07520784        -69.7736        0.3737693        71.58501
4.8296                 0.3708933        70.93569        0.0724377       -70.62369        0.0724377        -70.6235        0.3708934        70.93574
4.831                  0.3680014        70.27961       0.06968461       -71.49787       0.06968462        -71.4977        0.3680014        70.27969
4.8324                 0.3650903        69.61588         0.066948       -72.40174       0.06694805       -72.40156        0.3650904        69.61596
4.8338                 0.3621562        68.94365       0.06422667       -73.34141       0.06422674       -73.34125        0.3621563         68.9437
4.8352                 0.3591946        68.26208       0.06151886       -74.32394       0.06151895       -74.32378        0.3591948        68.26214
4.8366                 0.3562005        67.57048       0.05882233        -75.3572       0.05882241       -75.35707        0.3562006        67.57053
4.838                  0.3531682        66.86817       0.05613445       -76.45015       0.05613454       -76.45004        0.3531683        66.86824
4.8394                 0.3500918        66.15466       0.05345238       -77.61293       0.05345249       -77.61282        0.3500919        66.15471
4.8408                 0.3469651        65.42946       0.05077321       -78.85712       0.05077332       -78.85701        0.3469653         65.4295
4.8422                 0.3437821        64.69225       0.04809414       -80.19609       0.04809424       -80.19602        0.3437823        64.69228
4.8436                 0.3405367        63.94283       0.04541269       -81.64565       0.04541279        -81.6456        0.3405367        63.94288
4.845                  0.3372228         63.1811       0.04272692        -83.2248       0.04272702       -83.22476        0.3372229        63.18114
4.8464                 0.3338352        62.40708        0.0400357       -84.95682       0.04003579       -84.95682        0.3338353        62.40712
4.8478                 0.3303688        61.62086       0.03733897       -86.87113       0.03733905       -86.87113        0.3303688        61.62089
4.8492                 0.3268193        60.82261       0.03463813       -89.00562       0.03463819       -89.00565        0.3268192        60.82265
4.8506                 0.3231828        60.01261       0.03193647       -91.41036       0.03193652       -91.41042        0.3231827        60.01265
4.852                  0.3194562        59.19111       0.02923985       -94.15316       0.02923988       -94.15322        0.3194561        59.19114
4.8534                 0.3156372        58.35842       0.02655768       -97.32781        0.0265577       -97.32786        0.3156371        58.35846
4.8548                 0.3117241        57.51484       0.02390449        -101.067       0.02390451       -101.0671         0.311724        57.51487
4.8562                 0.3077158        56.66059       0.02130255       -105.5618       0.02130255       -105.5619        0.3077156        56.66064
4.8576                 0.3036119         55.7959       0.01878624       -111.0907       0.01878623       -111.0908        0.3036117        55.79595
4.859                  0.2994122        54.92086       0.01640962       -118.0561        0.0164096       -118.0563         0.299412         54.9209
4.8604                 0.2951173        54.03543       0.01425857       -127.0113       0.01425855       -127.0114        0.2951171        54.03549
4.8618                 0.2907276        53.13948       0.01246699       -138.5956       0.01246697       -138.5957        0.2907273        53.13955
4.8632                 0.2862436        52.23271       0.01122472       -153.1789        0.0112247       -153.1791        0.2862433        52.23277
4.8646                 0.2816659        51.31461        0.0107388       -170.0873       0.01073878       -170.0875        0.2816656        51.31468
4.866                  0.2769946        50.38454       0.01112065        172.7788       0.01112064        172.7786        0.2769944        50.38461
4.8674                 0.2722296        49.44162       0.01229847        157.6824       0.01229846        157.6822        0.2722294        49.44171
4.8688                 0.2673699        48.48483       0.01408039        145.5549       0.01408038        145.5548        0.2673696        48.48491
4.8702                 0.2624138        47.51289       0.01627425        136.1434       0.01627424        136.1433        0.2624136        47.51298
4.8716                  0.257359         46.5244       0.01874036        128.8154       0.01874035        128.8153        0.2573588        46.52449