! TOUCHSTONE file generated by CST MICROWAVE STUDIO
! Date and time: Sun Dec  1 17:16:58 2024
! Project name: test_tuning.cst
! Parameters = {airCoaxOuterDiameter=3; chamferAngle=45; chamferWidth=24; connectorLength=10; drillingHoleDiameter=4.1; feedLength=60; flareDiameter=130; flareLength=70; gratingDistance=0; gratingGap=1.90274; outletLength=30; polarizerLength=76; probe1Diameter=1.3; probe1Distance=14; probe1Length=12; probe2Diameter=1.3; probe2Distance=0; probe2Length=12; probeLength=12; smaInnerDiameter=1.3; smaOuterDiameter=4.1; transitionCoefficient=1.33; waveguideFeedLength=30; waveguideSide=50; waveguideThickness=3; wireCount=25; wireDiameter=1.17699}
! Header version: 2024
! Port assignment regex: !\s*Touchstone port\s*([0-9]+)\s*=\s*(CST MWS port|CST DES external port|CST DES block port)\s*(.+)\s* \(\"(.*)\"\)(\s*mode\s*([0-9]+))?.*
! Touchstone port assignment:
! Touchstone port 1 = CST MWS port 1 ("Input1")
! Touchstone port 2 = CST MWS port 2 ("Input2")
# GHz S MA R 50
4.6                    0.1990017       -157.0966        0.6130745        63.47134        0.6130744        63.47132        0.1990019       -157.0968
4.6014                 0.2053631       -158.0882        0.6151197        62.62754        0.6151195        62.62752        0.2053633       -158.0883
4.6028                  0.211768       -159.0792           0.6171        61.77395        0.6170998        61.77393        0.2117682       -159.0794
4.6042                 0.2182118       -160.0708        0.6190114        60.91068        0.6190113        60.91067        0.2182121       -160.0709
4.6056                 0.2246897       -161.0637        0.6208501        60.03787        0.6208498        60.03785        0.2246899       -161.0638
4.607                  0.2311966       -162.0587         0.622612        59.15564        0.6226118        59.15564        0.2311968       -162.0588
4.6084                 0.2377271       -163.0562        0.6242934        58.26416        0.6242932        58.26415        0.2377273       -163.0563
4.6098                 0.2442758       -164.0568        0.6258903        57.36356        0.6258901        57.36355        0.2442761       -164.0569
4.6112                 0.2508372       -165.0608        0.6273991        56.45401        0.6273988          56.454        0.2508375       -165.0609
4.6126                 0.2574056       -166.0684         0.628816        55.53569        0.6288159        55.53568        0.2574058       -166.0685
4.614                  0.2639751       -167.0798        0.6301374        54.60878        0.6301373        54.60876        0.2639754       -167.0799
4.6154                 0.2705398       -168.0951        0.6313599        53.67347        0.6313597        53.67346        0.2705402       -168.0952
4.6168                 0.2770939       -169.1143        0.6324798        52.72997        0.6324798        52.72996        0.2770943       -169.1144
4.6182                 0.2836315       -170.1374        0.6334941        51.77848        0.6334939        51.77846        0.2836318       -170.1374
4.6196                 0.2901463       -171.1643        0.6343994        50.81922        0.6343992        50.81921        0.2901467       -171.1644
4.621                  0.2966326       -172.1949        0.6351927        49.85242        0.6351926        49.85241         0.296633        -172.195
4.6224                 0.3030843       -173.2291         0.635871        48.87831        0.6358708         48.8783        0.3030847       -173.2291
4.6238                 0.3094956       -174.2666        0.6364315        47.89714        0.6364314        47.89713         0.309496       -174.2667
4.6252                 0.3158605       -175.3073        0.6368716        46.90913        0.6368715        46.90912        0.3158609       -175.3074
4.6266                 0.3221733        -176.351        0.6371888        45.91456        0.6371887        45.91455        0.3221738        -176.351
4.628                  0.3284284       -177.3972        0.6373808        44.91368        0.6373806        44.91368        0.3284289       -177.3973
4.6294                 0.3346202       -178.4459        0.6374454        43.90676        0.6374452        43.90675        0.3346207        -178.446
4.6308                 0.3407432       -179.4968        0.6373805        42.89408        0.6373804        42.89406        0.3407437       -179.4968
4.6322                 0.3467922        179.4506        0.6371846        41.87589        0.6371845        41.87588        0.3467927        179.4506
4.6336                 0.3527619        178.3964        0.6368559        40.85249        0.6368558        40.85247        0.3527625        178.3964
4.635                  0.3586475         177.341        0.6363931        39.82417        0.6363929        39.82416         0.358648         177.341
4.6364                 0.3644441        176.2847        0.6357949        38.79121        0.6357947         38.7912        0.3644446        176.2847
4.6378                  0.370147        175.2278        0.6350604        37.75392        0.6350602        37.75391        0.3701476        175.2278
4.6392                 0.3757519        174.1706        0.6341887        36.71259        0.6341885        36.71258        0.3757525        174.1705
4.6406                 0.3812546        173.1134        0.6331793        35.66753         0.633179        35.66752        0.3812552        173.1134
4.642                  0.3866509        172.0565        0.6320317        34.61905        0.6320315        34.61903        0.3866515        172.0565
4.6434                  0.391937        171.0003         0.630746        33.56744        0.6307458        33.56743        0.3919376        171.0003
4.6448                 0.3971094         169.945        0.6293221        32.51303         0.629322        32.51301          0.39711         169.945
4.6462                 0.4021646         168.891        0.6277604        31.45613        0.6277603        31.45611        0.4021653        168.8909
4.6476                 0.4070996        167.8385        0.6260614        30.39706        0.6260612        30.39704        0.4071002        167.8384
4.649                  0.4119111        166.7878        0.6242259        29.33612        0.6242256        29.33612        0.4119118        166.7877
4.6504                 0.4165967        165.7392        0.6222547        28.27367        0.6222545        28.27365        0.4165975        165.7391
4.6518                 0.4211539         164.693        0.6201493        27.20998         0.620149        27.20997        0.4211546        164.6929
4.6532                 0.4255802        163.6494        0.6179107        26.14542        0.6179105        26.14541        0.4255809        163.6494
4.6546                 0.4298737        162.6087        0.6155409        25.08028        0.6155407        25.08026        0.4298744        162.6087
4.656                  0.4340323        161.5712        0.6130417        24.01489        0.6130415        24.01488        0.4340331        161.5712
4.6574                 0.4380548        160.5371        0.6104152        22.94957        0.6104149        22.94956        0.4380554        160.5371
4.6588                 0.4419393        159.5066        0.6076635        21.88465        0.6076632        21.88464          0.44194        159.5066
4.6602                 0.4456849          158.48        0.6047893        20.82043         0.604789        20.82042        0.4456856          158.48
4.6616                 0.4492904        157.4575        0.6017953        19.75724         0.601795        19.75723        0.4492911        157.4575
4.663                  0.4527551        156.4393        0.5986844        18.69538        0.5986842        18.69537        0.4527558        156.4393
4.6644                 0.4560782        155.4256        0.5954598        17.63517        0.5954595        17.63516        0.4560789        155.4256
4.6658                 0.4592594        154.4166        0.5921246         16.5769        0.5921244        16.57689        0.4592601        154.4166
4.6672                 0.4622984        153.4125        0.5886825        15.52089        0.5886823        15.52088        0.4622991        153.4125
4.6686                  0.465195        152.4134        0.5851372        14.46741        0.5851368         14.4674        0.4651957        152.4134
4.67                   0.4679493        151.4196        0.5814924        13.41676        0.5814921        13.41676        0.4679501        151.4196
4.6714                 0.4705615        150.4312        0.5777521        12.36922        0.5777518        12.36922        0.4705624        150.4312
4.6728                 0.4730321        149.4484        0.5739205        11.32506        0.5739202        11.32505        0.4730329        149.4483
4.6742                 0.4753614        148.4713         0.570002        10.28453        0.5700018        10.28453        0.4753621        148.4712
4.6756                   0.47755           147.5        0.5660009        9.247894        0.5660006        9.247894        0.4775508           147.5
4.677                  0.4795989        146.5347        0.5619217        8.215387        0.5619214        8.215388        0.4795997        146.5347
4.6784                 0.4815088        145.5756        0.5577693        7.187234         0.557769        7.187235        0.4815096        145.5755
4.6798                 0.4832808        144.6227        0.5535481        6.163649        0.5535478        6.163651        0.4832815        144.6226
4.6812                 0.4849157        143.6761        0.5492632         5.14483        0.5492629        5.144833        0.4849165        143.6761
4.6826                 0.4864151        142.7361        0.5449193        4.130959         0.544919        4.130963        0.4864158        142.7361
4.684                  0.4877799        141.8027        0.5405214          3.1222        0.5405212        3.122206        0.4877806        141.8027
4.6854                 0.4890116        140.8759        0.5360745        2.118699        0.5360743        2.118706        0.4890124        140.8759
4.6868                 0.4901117         139.956        0.5315837        1.120584        0.5315834        1.120592        0.4901124         139.956
4.6882                 0.4910816        139.0429        0.5270538       0.1279581        0.5270535       0.1279666        0.4910822        139.0429
4.6896                 0.4919227        138.1369        0.5224898      -0.8590951        0.5224896      -0.8590857        0.4919235        138.1369
4.691                  0.4926369        137.2379        0.5178968       -1.840516        0.5178966       -1.840506        0.4926375        137.2379
4.6924                 0.4932257        136.3461        0.5132797        -2.81627        0.5132795       -2.816259        0.4932263        136.3461
4.6938                 0.4936908        135.4616        0.5086433       -3.786349        0.5086431       -3.786337        0.4936915        135.4616
4.6952                  0.494034        134.5845        0.5039923       -4.750771        0.5039921       -4.750758        0.4940345        134.5844
4.6966                 0.4942569        133.7147        0.4993314       -5.709581        0.4993313       -5.709567        0.4942576        133.7147
4.698                  0.4943616        132.8525        0.4946653       -6.662855        0.4946652       -6.662841        0.4943622        132.8525
4.6994                 0.4943498        131.9979        0.4899983       -7.610696        0.4899982       -7.610684        0.4943504        131.9979
4.7008                 0.4942234        131.1511        0.4853347       -8.553261        0.4853346       -8.553233         0.494224        131.1511
4.7022                 0.4939842         130.312        0.4806786       -9.490637        0.4806785       -9.490636        0.4939849         130.312
4.7036                 0.4936343        129.4808         0.476034       -10.42315        0.4760339       -10.42312         0.493635        129.4808
4.705                  0.4931757        128.6576        0.4714045       -11.35091        0.4714044       -11.35091        0.4931763        128.6576
4.7064                 0.4926101        127.8425        0.4667937       -12.27424        0.4667936       -12.27424        0.4926108        127.8425
4.7078                 0.4919399        127.0357        0.4622049       -13.19347        0.4622048       -13.19342        0.4919405        127.0357
4.7092                 0.4911669        126.2371        0.4576411       -14.10882        0.4576411       -14.10882        0.4911674        126.2371
4.7106                 0.4902931        125.4469        0.4531052       -15.02071        0.4531052        -15.0207        0.4902936        125.4469
4.712                  0.4893208        124.6653        0.4485997       -15.92953        0.4485997       -15.92951        0.4893213        124.6653
4.7134                 0.4882521        123.8924         0.444127       -16.83567         0.444127       -16.83566        0.4882526        123.8924
4.7148                 0.4870891        123.1283        0.4396889        -17.7396        0.4396889       -17.73959        0.4870897        123.1283
4.7162                 0.4858342        122.3732        0.4352873       -18.64178        0.4352873       -18.64176        0.4858347        122.3732
4.7176                 0.4844895        121.6272        0.4309236        -19.5427        0.4309236       -19.54269          0.48449        121.6272
4.719                  0.4830575        120.8904         0.426599       -20.44289         0.426599       -20.44287         0.483058        120.8904
4.7204                 0.4815404        120.1631        0.4223142       -21.34289        0.4223142       -21.34287        0.4815409        120.1631
4.7218                 0.4799408        119.4453          0.41807       -22.24326          0.41807       -22.24325        0.4799413        119.4453
4.7232                 0.4782612        118.7374        0.4138666       -23.14458        0.4138667       -23.14457        0.4782617        118.7374
4.7246                 0.4765042        118.0394        0.4097041       -24.04744        0.4097041       -24.04743        0.4765047        118.0394
4.726                  0.4746724        117.3515        0.4055821       -24.95247        0.4055821       -24.95246        0.4746729        117.3516
4.7274                 0.4727687        116.6741        0.4015002       -25.86026        0.4015002       -25.86026        0.4727692        116.6741
4.7288                 0.4707959        116.0073        0.3974576       -26.77145        0.3974577       -26.77145        0.4707964        116.0072
4.7302                 0.4687569        115.3512        0.3934533       -27.68668        0.3934533       -27.68668        0.4687574        115.3512
4.7316                 0.4666549        114.7061         0.389486       -28.60657        0.3894861       -28.60656        0.4666554        114.7061
4.733                  0.4644929        114.0723        0.3855543       -29.53175        0.3855543       -29.53174        0.4644935        114.0723
4.7344                 0.4622744          113.45        0.3816565       -30.46285        0.3816566       -30.46285        0.4622749          113.45
4.7358                 0.4600026        112.8394        0.3777909        -31.4005        0.3777909        -31.4005        0.4600031        112.8394
4.7372                 0.4576811        112.2407        0.3739552       -32.34531        0.3739552       -32.34532        0.4576816        112.2407
4.7386                 0.4553136        111.6542        0.3701474        -33.2979        0.3701474       -33.29791        0.4553141        111.6542
4.74                   0.4529038        111.0801        0.3663653       -34.25884        0.3663653       -34.25884        0.4529043        111.0801
4.7414                 0.4504556        110.5187        0.3626063       -35.22873        0.3626064       -35.22873        0.4504561        110.5187
4.7428                 0.4479731        109.9702        0.3588682       -36.20811        0.3588682       -36.20811        0.4479736        109.9702
4.7442                 0.4454604        109.4347        0.3551482       -37.19754        0.3551482       -37.19754        0.4454609        109.4347
4.7456                 0.4429219        108.9125        0.3514438       -38.19754        0.3514438       -38.19755        0.4429223        108.9125
4.747                  0.4403617        108.4038        0.3477524       -39.20862        0.3477524       -39.20863        0.4403622        108.4039
4.7484                 0.4377846        107.9089        0.3440714       -40.23126        0.3440713       -40.23127        0.4377851        107.9089
4.7498                 0.4351951        107.4277        0.3403981       -41.26593        0.3403981       -41.26594        0.4351956        107.4278
4.7512                 0.4325979        106.9606          0.33673       -42.31307          0.33673       -42.31307        0.4325984        106.9606
4.7526                 0.4299978        106.5075        0.3330646       -43.37309        0.3330646        -43.3731        0.4299983        106.5076
4.754                  0.4273998        106.0688        0.3293995       -44.44639        0.3293994       -44.44641        0.4274003        106.0688
4.7554                 0.4248087        105.6442        0.3257322       -45.53335        0.3257322       -45.53336        0.4248092        105.6442
4.7568                 0.4222296         105.234        0.3220606       -46.63434        0.3220605       -46.63435        0.4222301         105.234
4.7582                 0.4196676         104.838        0.3183824       -47.74966        0.3183824       -47.74967        0.4196681        104.8381
4.7596                 0.4171277        104.4564        0.3146958       -48.87965        0.3146958       -48.87967        0.4171281        104.4564
4.761                  0.4146148        104.0889        0.3109989        -50.0246        0.3109988       -50.02461        0.4146152         104.089
4.7624                 0.4121341        103.7355        0.3072899       -51.18479        0.3072898       -51.18482        0.4121346        103.7355
4.7638                 0.4096906         103.396        0.3035674       -52.36049        0.3035673       -52.36051        0.4096911         103.396
4.7652                 0.4072892        103.0701          0.29983       -53.55195        0.2998299       -53.55196        0.4072896        103.0701
4.7666                 0.4049346        102.7576        0.2960765        -54.7594        0.2960764       -54.75941        0.4049351        102.7576
4.768                  0.4026317        102.4581         0.292306       -55.98307         0.292306       -55.98309        0.4026322        102.4581
4.7694                  0.400385        102.1713        0.2885178       -57.22318        0.2885178        -57.2232        0.4003854        102.1713
4.7708                 0.3981988        101.8967        0.2847113       -58.47995        0.2847112       -58.47997        0.3981993        101.8967
4.7722                 0.3960774        101.6338        0.2808861       -59.75358         0.280886       -59.75359        0.3960779        101.6338
4.7736                 0.3940247         101.382        0.2770421       -61.04429         0.277042       -61.04429        0.3940252         101.382
4.775                  0.3920445        101.1408        0.2731793       -62.35225        0.2731792       -62.35226         0.392045        101.1408
4.7764                   0.39014        100.9094         0.269298        -63.6777         0.269298       -63.67773        0.3901405        100.9094
4.7778                 0.3883146         100.687        0.2653988       -65.02086        0.2653987       -65.02089        0.3883151        100.6871
4.7792                 0.3865709         100.473        0.2614823       -66.38194        0.2614822       -66.38194        0.3865714        100.4731
4.7806                 0.3849114        100.2665        0.2575494       -67.76115        0.2575493       -67.76115        0.3849119        100.2665
4.782                  0.3833383        100.0666        0.2536012       -69.15873        0.2536011       -69.15873        0.3833387        100.0666
4.7834                  0.381853        99.87237         0.249639       -70.57495        0.2496389       -70.57496        0.3818534         99.8724
4.7848                 0.3804568        99.68285        0.2456643        -72.0101        0.2456642        -72.0101        0.3804572        99.68291
4.7862                 0.3791507         99.4971        0.2416788       -73.46439        0.2416787       -73.46441        0.3791511        99.49712
4.7876                  0.377935        99.31406        0.2376844       -74.93822        0.2376843       -74.93823        0.3779354        99.31409
4.789                  0.3768096        99.13274        0.2336831       -76.43185        0.2336831       -76.43187          0.37681        99.13276
4.7904                 0.3757741        98.95205        0.2296772       -77.94568        0.2296771       -77.94569        0.3757745        98.95208
4.7918                 0.3748275        98.77099         0.225669       -79.48006        0.2256689       -79.48007         0.374828        98.77101
4.7932                 0.3739686         98.5885        0.2216611       -81.03541         0.221661       -81.03541         0.373969        98.58852
4.7946                 0.3731954        98.40359        0.2176561       -82.61216        0.2176561       -82.61216        0.3731958        98.40362
4.796                  0.3725057        98.21517         0.213657       -84.21078         0.213657       -84.21078        0.3725061        98.21519
4.7974                  0.371897        98.02231        0.2096667        -85.8318        0.2096667       -85.83181        0.3718974        98.02233
4.7988                 0.3713661        97.82401        0.2056884       -87.47572        0.2056884       -87.47572        0.3713665        97.82403
4.8002                 0.3709097        97.61938        0.2017252       -89.14316        0.2017252       -89.14316        0.3709101         97.6194
4.8016                 0.3705239         97.4075        0.1977807       -90.83469        0.1977806       -90.83469        0.3705244        97.40755
4.803                  0.3702048        97.18759        0.1938581       -92.55095        0.1938581       -92.55096        0.3702052        97.18761
4.8044                 0.3699479        96.95882        0.1899612       -94.29265        0.1899612       -94.29266        0.3699483        96.95885
4.8058                 0.3697485        96.72045        0.1860936        -96.0605        0.1860936        -96.0605        0.3697489        96.72048
4.8072                 0.3696017        96.47185         0.182259       -97.85524         0.182259       -97.85524        0.3696021        96.47187
4.8086                 0.3695025         96.2124        0.1784614       -99.67763        0.1784614       -99.67765        0.3695029        96.21242
4.81                   0.3694454         95.9415        0.1747047       -101.5285        0.1747047       -101.5286        0.3694458        95.94155
4.8114                 0.3694251        95.65875        0.1709929       -103.4087        0.1709929       -103.4088        0.3694254        95.65878
4.8128                 0.3694359        95.36369          0.16733       -105.3191        0.1673301       -105.3191        0.3694362        95.36372
4.8142                 0.3694722        95.05597        0.1637203       -107.2605        0.1637203       -107.2605        0.3694725        95.05599
4.8156                 0.3695282         94.7353        0.1601678       -109.2338        0.1601678       -109.2338        0.3695286        94.73532
4.817                  0.3695983        94.40147        0.1566768       -111.2398        0.1566769       -111.2399        0.3695986         94.4015
4.8184                 0.3696766        94.05432        0.1532517       -113.2795        0.1532517       -113.2795         0.369677        94.05435
4.8198                 0.3697575        93.69375        0.1498965       -115.3535        0.1498966       -115.3535        0.3697579        93.69377
4.8212                 0.3698353        93.31969        0.1466158       -117.4627        0.1466158       -117.4627        0.3698357        93.31974
4.8226                 0.3699046        92.93221        0.1434137       -119.6077        0.1434137       -119.6077        0.3699048        92.93223
4.824                  0.3699596        92.53132        0.1402946       -121.7892        0.1402946       -121.7893        0.3699599        92.53135
4.8254                 0.3699952        92.11717        0.1372627       -124.0077        0.1372627       -124.0078        0.3699956        92.11722
4.8268                 0.3700063        91.68995        0.1343223       -126.2636        0.1343223       -126.2636        0.3700066        91.68998
4.8282                 0.3699878        91.24983        0.1314776        -128.557        0.1314776        -128.557        0.3699881        91.24987
4.8296                 0.3699349        90.79707        0.1287326        -130.888        0.1287327       -130.8881        0.3699352        90.79711
4.831                  0.3698431        90.33198        0.1260914       -133.2565        0.1260914       -133.2565        0.3698434        90.33202
4.8324                 0.3697079        89.85487        0.1235578       -135.6618        0.1235579       -135.6619        0.3697082        89.85491
4.8338                 0.3695253         89.3661        0.1211356       -138.1035        0.1211357       -138.1036        0.3695255        89.36616
4.8352                 0.3692913        88.86608        0.1188283       -140.5805        0.1188284       -140.5805        0.3692916        88.86612
4.8366                 0.3690023        88.35519        0.1166393       -143.0913        0.1166393       -143.0914        0.3690025        88.35523
4.838                   0.368655        87.83388        0.1145716       -145.6344        0.1145717       -145.6344        0.3686552        87.83393
4.8394                 0.3682462        87.30261        0.1126281       -148.2076        0.1126281       -148.2077        0.3682464        87.30265
4.8408                 0.3677731        86.76184        0.1108112       -150.8085        0.1108113       -150.8086        0.3677733        86.76189
4.8422                 0.3672332        86.21209        0.1091232       -153.4344        0.1091232       -153.4345        0.3672334        86.21213
4.8436                 0.3666242        85.65383        0.1075658        -156.082        0.1075658        -156.082        0.3666245        85.65387
4.845                  0.3659442        85.08757        0.1061404       -158.7476        0.1061404       -158.7477        0.3659444        85.08761
4.8464                 0.3651913        84.51382        0.1048479       -161.4275         0.104848       -161.4276        0.3651915        84.51387
4.8478                 0.3643643        83.93314         0.103689       -164.1175         0.103689       -164.1176        0.3643645         83.9332
4.8492                 0.3634619        83.34602        0.1026635        -166.813        0.1026636       -166.8131        0.3634621        83.34608
4.8506                 0.3624832          82.753        0.1017712       -169.5095        0.1017712       -169.5096        0.3624834        82.75306
4.852                  0.3614277        82.15461         0.101011       -172.2021        0.1010111       -172.2022        0.3614279        82.15466
4.8534                  0.360295        81.55136        0.1003817       -174.8861        0.1003818       -174.8862        0.3602952        81.55141
4.8548                  0.359085        80.94378       0.09988148       -177.5565       0.09988155       -177.5566        0.3590852        80.94383
4.8562                 0.3577978        80.33238       0.09950809        179.7913       0.09950816        179.7912         0.357798        80.33243
4.8576                 0.3564338        79.71766       0.09925893         177.162       0.09925901        177.1619         0.356434        79.71772
4.859                  0.3549937        79.10011       0.09913107        174.5599       0.09913114        174.5598        0.3549939        79.10016
4.8604                 0.3534783        78.48023       0.09912122        171.9892       0.09912129        171.9891        0.3534784        78.48029
4.8618                 0.3518885         77.8585       0.09922588        169.4535       0.09922595        169.4534        0.3518886        77.85855
4.8632                 0.3502256        77.23535       0.09944131        166.9564       0.09944138        166.9563        0.3502257        77.23542
4.8646                  0.348491        76.61126       0.09976361        164.5008       0.09976366        164.5007        0.3484911        76.61131
4.866                  0.3466863        75.98661        0.1001888        162.0894        0.1001888        162.0892        0.3466864        75.98668
4.8674                 0.3448131        75.36187        0.1007127        159.7241        0.1007127         159.724        0.3448133        75.36192
4.8688                 0.3428735         74.7374        0.1013312         157.407        0.1013313        157.4068        0.3428736        74.73746
4.8702                 0.3408693        74.11359        0.1020403        155.1391        0.1020403         155.139        0.3408694        74.11364
4.8716                 0.3388027        73.49078        0.1028358        152.9215        0.1028359        152.9214        0.3388028        73.49084