! TOUCHSTONE file generated by CST MICROWAVE STUDIO
! Date and time: Sun Dec  1 17:16:58 2024
! Project name: test_tuning.cst
! Parameters = {airCoaxOuterDiameter=3; chamferAngle=45; chamferWidth=24; connectorLength=10; drillingHoleDiameter=4.1; feedLength=60; flareDiameter=130; flareLength=70; gratingDistance=0; gratingGap=1.90274; outletLength=30; polarizerLength=74; probe1Diameter=1.3; probe1Distance=14; probe1Length=12; probe2Diameter=1.3; probe2Distance=0; probe2Length=12; probeLength=12; smaInnerDiameter=1.3; smaOuterDiameter=4.1; transitionCoefficient=1.33; waveguideFeedLength=30; waveguideSide=50; waveguideThickness=3; wireCount=25; wireDiameter=1.17699}
! Header version: 2024
! Port assignment regex: !\s*Touchstone port\s*([0-9]+)\s*=\s*(CST MWS port|CST DES external port|CST DES block port)\s*(.+)\s* \(\"(.*)\"\)(\s*mode\s*([0-9]+))?.*
! Touchstone port assignment:
! Touchstone port 1 = CST MWS port 1 ("Input1")
! Touchstone port 2 = CST MWS port 2 ("Input2")
# GHz S MA R 50
4.6                    0.2011385        -160.602        0.6288917        63.62529        0.6288917        63.62529        0.2011386       -160.6021
4.6014                 0.2070358       -161.6245        0.6310696        62.75173        0.6310697        62.75173         0.207036       -161.6246
4.6028                 0.2129479       -162.6357        0.6331537        61.86796        0.6331539        61.86795        0.2129481       -162.6358
4.6042                 0.2188727        -163.637        0.6351395        60.97434        0.6351396        60.97433         0.218873       -163.6371
4.6056                 0.2248082       -164.6297         0.637023        60.07116         0.637023        60.07116        0.2248084       -164.6298
4.607                  0.2307521       -165.6149        0.6388001         59.1588        0.6388002         59.1588        0.2307524        -165.615
4.6084                 0.2367021       -166.5936        0.6404672        58.23757        0.6404672        58.23757        0.2367024       -166.5937
4.6098                  0.242656       -167.5669        0.6420207        57.30783        0.6420208        57.30783        0.2426563        -167.567
4.6112                 0.2486112       -168.5355        0.6434575        56.36992        0.6434577         56.3699        0.2486115       -168.5355
4.6126                 0.2545653       -169.5001        0.6447745        55.42417        0.6447747        55.42416        0.2545656       -169.5002
4.614                  0.2605156       -170.4615        0.6459691        54.47094        0.6459692        54.47093        0.2605159       -170.4616
4.6154                 0.2664595       -171.4203        0.6470386        53.51057        0.6470386        53.51056        0.2664599       -171.4204
4.6168                 0.2723943       -172.3771        0.6479806        52.54341        0.6479806        52.54341        0.2723946       -172.3772
4.6182                  0.278317       -173.3322        0.6487932        51.56981        0.6487933         51.5698        0.2783173       -173.3323
4.6196                 0.2842247       -174.2863        0.6494744        50.59011        0.6494745        50.59009        0.2842251       -174.2863
4.621                  0.2901146       -175.2396        0.6500228        49.60464        0.6500228        49.60462        0.2901149       -175.2396
4.6224                 0.2959834       -176.1925        0.6504368        48.61373        0.6504368        48.61373        0.2959837       -176.1926
4.6238                 0.3018281       -177.1454        0.6507154        47.61775        0.6507155        47.61774        0.3018284       -177.1454
4.6252                 0.3076454       -178.0984        0.6508577          46.617        0.6508577        46.61699        0.3076458       -178.0985
4.6266                 0.3134322       -179.0519        0.6508628        45.61183        0.6508628        45.61181        0.3134326        -179.052
4.628                  0.3191851        179.9939        0.6507304        44.60254        0.6507304        44.60252        0.3191855        179.9938
4.6294                 0.3249007        179.0388        0.6504602        43.58946        0.6504603        43.58945        0.3249011        179.0388
4.6308                 0.3305756        178.0828        0.6500523        42.57291        0.6500522        42.57289         0.330576        178.0828
4.6322                 0.3362064        177.1257        0.6495065        41.55319        0.6495065        41.55318        0.3362068        177.1256
4.6336                 0.3417895        176.1673        0.6488235        40.53061        0.6488235        40.53061        0.3417899        176.1672
4.635                  0.3473215        175.2075        0.6480037        39.50549        0.6480036        39.50548        0.3473219        175.2075
4.6364                 0.3527987        174.2465        0.6470479         38.4781        0.6470477        38.47808        0.3527992        174.2464
4.6378                 0.3582177        173.2839         0.645957        37.44873         0.645957        37.44871        0.3582182        173.2839
4.6392                 0.3635748        172.3199        0.6447323        36.41767        0.6447322        36.41766        0.3635753        172.3199
4.6406                 0.3688665        171.3545        0.6433749         35.3852        0.6433748        35.38519        0.3688669        171.3545
4.642                  0.3740891        170.3876        0.6418863         34.3516        0.6418863        34.35158        0.3740895        170.3875
4.6434                  0.379239        169.4192        0.6402684        33.31712        0.6402683        33.31711        0.3792394        169.4192
4.6448                 0.3843126        168.4494        0.6385227        32.28203        0.6385226        32.28202        0.3843131        168.4494
4.6462                 0.3893064        167.4783        0.6366512        31.24659         0.636651        31.24658        0.3893069        167.4782
4.6476                 0.3942169        166.5058        0.6346561        30.21104        0.6346561        30.21103        0.3942173        166.5058
4.649                  0.3990404        165.5321        0.6325397        29.17562        0.6325396        29.17561        0.3990409        165.5321
4.6504                 0.4037735        164.5573        0.6303042        28.14057        0.6303042        28.14056        0.4037739        164.5572
4.6518                 0.4084127        163.5813        0.6279522        27.10613        0.6279522        27.10612        0.4084132        163.5813
4.6532                 0.4129547        162.6044        0.6254863         26.0725        0.6254862        26.07249        0.4129552        162.6044
4.6546                  0.417396        161.6267        0.6229093        25.03991        0.6229092         25.0399        0.4173965        161.6266
4.656                  0.4217334        160.6482        0.6202239        24.00856        0.6202238        24.00856        0.4217339        160.6482
4.6574                 0.4259636        159.6691        0.6174331        22.97867         0.617433        22.97866        0.4259641        159.6691
4.6588                 0.4300835        158.6895        0.6145399        21.95041        0.6145397        21.95041         0.430084        158.6895
4.6602                 0.4340898        157.7097        0.6115474        20.92398        0.6115473        20.92398        0.4340904        157.7096
4.6616                 0.4379798        156.7296        0.6084588        19.89956        0.6084588        19.89956        0.4379804        156.7296
4.663                  0.4417505        155.7495        0.6052775        18.87732        0.6052774        18.87732         0.441751        155.7495
4.6644                  0.445399        154.7696        0.6020066        17.85743        0.6020065        17.85742        0.4453995        154.7696
4.6658                 0.4489225        153.7901        0.5986496        16.84003        0.5986495        16.84003         0.448923          153.79
4.6672                 0.4523186         152.811        0.5952099        15.82529        0.5952098        15.82528        0.4523191         152.811
4.6686                 0.4555846        151.8327         0.591691        14.81333        0.5916909        14.81333        0.4555852        151.8327
4.67                   0.4587182        150.8552        0.5880963        13.80429        0.5880962        13.80429        0.4587188        150.8552
4.6714                 0.4617172        149.8789        0.5844294        12.79829        0.5844293        12.79829        0.4617178        149.8789
4.6728                 0.4645794        148.9039        0.5806939        11.79545        0.5806938        11.79545          0.46458        148.9039
4.6742                 0.4673027        147.9304        0.5768933        10.79586        0.5768931        10.79586        0.4673034        147.9304
4.6756                 0.4698856        146.9587        0.5730312        9.799625         0.573031        9.799629         0.469886        146.9587
4.677                  0.4723259         145.989        0.5691111        8.806827         0.569111        8.806831        0.4723264         145.989
4.6784                 0.4746223        145.0215        0.5651367         7.81754        0.5651366        7.817545        0.4746229        145.0215
4.6798                 0.4767735        144.0564        0.5611115        6.831827        0.5611114        6.831833        0.4767741        144.0564
4.6812                  0.478778        143.0941         0.557039        5.849744        0.5570389         5.84975        0.4787787        143.0941
4.6826                 0.4806349        142.1347        0.5529227         4.87133        0.5529227        4.871336        0.4806355        142.1347
4.684                  0.4823433        141.1785        0.5487663        3.896618        0.5487661        3.896625        0.4823439        141.1785
4.6854                 0.4839022        140.2258        0.5445729        2.925627        0.5445729        2.925635        0.4839028        140.2258
4.6868                 0.4853113        139.2769        0.5403461        1.958366        0.5403461        1.958373        0.4853119        139.2769
4.6882                 0.4865701         138.332        0.5360893       0.9948294        0.5360892       0.9948374        0.4865707        138.3319
4.6896                 0.4876783        137.3913        0.5318056      0.03500173        0.5318055      0.03501004         0.487679        137.3913
4.691                  0.4886362        136.4553        0.5274983      -0.9211466        0.5274983      -0.9211378        0.4886367        136.4553
4.6924                 0.4894435        135.5242        0.5231706       -1.873657        0.5231707       -1.873647        0.4894441        135.5242
4.6938                 0.4901009        134.5982        0.5188256       -2.822584        0.5188256       -2.822575        0.4901014        134.5982
4.6952                 0.4906088        133.6777         0.514466       -3.767997        0.5144661       -3.767987        0.4906092        133.6777
4.6966                 0.4909679         132.763        0.5100952       -4.709977        0.5100952       -4.709966        0.4909684         132.763
4.698                  0.4911792        131.8544        0.5057156       -5.648618        0.5057156       -5.648608        0.4911797        131.8544
4.6994                 0.4912438        130.9522        0.5013301        -6.58403        0.5013301        -6.58402        0.4912444        130.9522
4.7008                 0.4911632        130.0568        0.4969413       -7.516353        0.4969413       -7.516353        0.4911637        130.0568
4.7022                 0.4909387        129.1684        0.4925516        -8.44568        0.4925516        -8.44568        0.4909392        129.1684
4.7036                 0.4905721        128.2874        0.4881635       -9.372194        0.4881635       -9.372194        0.4905726        128.2874
4.705                  0.4900654        127.4142        0.4837792       -10.29607        0.4837792       -10.29607        0.4900659        127.4142
4.7064                 0.4894207         126.549        0.4794009       -11.21747        0.4794009       -11.21744        0.4894211         126.549
4.7078                 0.4886402        125.6922        0.4750306       -12.13654        0.4750306       -12.13654        0.4886406        125.6922
4.7092                 0.4877265        124.8442        0.4706703        -13.0536        0.4706703       -13.05358         0.487727        124.8442
4.7106                 0.4866824        124.0053        0.4663216       -13.96876        0.4663216       -13.96875        0.4866829        124.0053
4.712                  0.4855107        123.1759        0.4619863       -14.88231        0.4619863        -14.8823        0.4855112        123.1759
4.7134                 0.4842147        122.3563        0.4576658       -15.79448        0.4576659       -15.79447        0.4842152        122.3563
4.7148                 0.4827975        121.5468        0.4533616       -16.70553        0.4533617       -16.70552         0.482798        121.5468
4.7162                 0.4812627        120.7479        0.4490749       -17.61573        0.4490749       -17.61572        0.4812631        120.7479
4.7176                 0.4796138        119.9598        0.4448066       -18.52536        0.4448067       -18.52535        0.4796143        119.9598
4.719                  0.4778549         119.183         0.440558       -19.43473        0.4405581       -19.43471        0.4778553         119.183
4.7204                 0.4759898        118.4178        0.4363298       -20.34411        0.4363299       -20.34411        0.4759903        118.4178
4.7218                 0.4740228        117.6645        0.4321226       -21.25385        0.4321227       -21.25384        0.4740233        117.6645
4.7232                 0.4719583        116.9235        0.4279371       -22.16426        0.4279372       -22.16425        0.4719587        116.9235
4.7246                 0.4698007        116.1951        0.4237736       -23.07566        0.4237737       -23.07566        0.4698011        116.1951
4.726                  0.4675547        115.4797        0.4196325       -23.98842        0.4196326       -23.98841        0.4675551        115.4797
4.7274                 0.4652252        114.7776         0.415514       -24.90286        0.4155141       -24.90285        0.4652256        114.7776
4.7288                  0.462817        114.0892        0.4114181       -25.81935        0.4114182       -25.81934        0.4628174        114.0892
4.7302                 0.4603354        113.4147        0.4073448       -26.73825        0.4073448       -26.73824        0.4603358        113.4147
4.7316                 0.4577853        112.7545        0.4032938       -27.65993        0.4032939       -27.65992        0.4577857        112.7545
4.733                  0.4551723        112.1088        0.3992649       -28.58475         0.399265       -28.58474        0.4551727        112.1088
4.7344                 0.4525016        111.4779        0.3952578       -29.51309        0.3952579       -29.51309         0.452502        111.4779
4.7358                 0.4497789        110.8622        0.3912719       -30.44533         0.391272       -30.44533        0.4497792        110.8622
4.7372                 0.4470096        110.2618        0.3873067       -31.38185        0.3873069       -31.38184          0.44701        110.2618
4.7386                 0.4441995        109.6771        0.3833616       -32.32302        0.3833617       -32.32301        0.4441999        109.6771
4.74                   0.4413543        109.1081        0.3794357       -33.26924        0.3794358       -33.26923        0.4413546        109.1081
4.7414                 0.4384796        108.5551        0.3755284       -34.22087        0.3755285       -34.22086          0.43848        108.5551
4.7428                 0.4355814        108.0183        0.3716387        -35.1783        0.3716387        -35.1783        0.4355817        108.0183
4.7442                 0.4326654        107.4978        0.3677657       -36.14192        0.3677658       -36.14191        0.4326657        107.4978
4.7456                 0.4297373        106.9936        0.3639085       -37.11208        0.3639086       -37.11208        0.4297377        106.9936
4.747                   0.426803         106.506         0.360066       -38.08918        0.3600661       -38.08918        0.4268034         106.506
4.7484                 0.4238684        106.0349        0.3562373       -39.07358        0.3562374       -39.07358        0.4238687        106.0349
4.7498                 0.4209389        105.5804        0.3524213       -40.06565        0.3524215       -40.06565        0.4209392        105.5804
4.7512                 0.4180203        105.1424         0.348617       -41.06576         0.348617       -41.06576        0.4180206        105.1424
4.7526                 0.4151182        104.7208        0.3448232       -42.07427        0.3448232       -42.07427        0.4151185        104.7208
4.754                  0.4122379        104.3156        0.3410387       -43.09152        0.3410388       -43.09152        0.4122383        104.3156
4.7554                  0.409385        103.9266        0.3372628       -44.11789        0.3372629       -44.11789        0.4093853        103.9266
4.7568                 0.4065644        103.5536        0.3334942       -45.15371        0.3334943       -45.15371        0.4065647        103.5536
4.7582                 0.4037815        103.1964         0.329732       -46.19932        0.3297321       -46.19932        0.4037818        103.1964
4.7596                 0.4010409        102.8547        0.3259751       -47.25508        0.3259752       -47.25508        0.4010412        102.8547
4.761                  0.3983473        102.5281        0.3222227       -48.32133        0.3222228       -48.32132        0.3983476        102.5281
4.7624                 0.3957054        102.2163        0.3184737       -49.39838        0.3184738       -49.39838        0.3957057        102.2163
4.7638                 0.3931193        101.9189        0.3147273       -50.48657        0.3147274       -50.48657        0.3931196        101.9189
4.7652                 0.3905931        101.6354        0.3109829       -51.58622        0.3109829       -51.58623        0.3905933        101.6354
4.7666                 0.3881304        101.3652        0.3072394       -52.69768        0.3072395       -52.69768        0.3881307        101.3652
4.768                  0.3857349        101.1079        0.3034965       -53.82125        0.3034966       -53.82125        0.3857352        101.1079
4.7694                 0.3834097        100.8627        0.2997534       -54.95727        0.2997535       -54.95727        0.3834099        100.8627
4.7708                 0.3811576        100.6291        0.2960096       -56.10604        0.2960097       -56.10604        0.3811578        100.6291
4.7722                 0.3789813        100.4064        0.2922648       -57.26789        0.2922649       -57.26789        0.3789815        100.4064
4.7736                  0.376883        100.1937        0.2885185       -58.44317        0.2885186       -58.44317        0.3768833        100.1937
4.775                  0.3748648        99.99039        0.2847706       -59.63217        0.2847706       -59.63217        0.3748651        99.99042
4.7764                 0.3729281        99.79567        0.2810207       -60.83524        0.2810208       -60.83524        0.3729284         99.7957
4.7778                 0.3710743        99.60869        0.2772691        -62.0527        0.2772691        -62.0527        0.3710745        99.60872
4.7792                 0.3693042        99.42858        0.2735155       -63.28489        0.2735156       -63.28489        0.3693045        99.42858
4.7806                 0.3676185        99.25449        0.2697603       -64.53217        0.2697603       -64.53217        0.3676187        99.25451
4.782                  0.3660173        99.08551        0.2660036       -65.79486        0.2660036       -65.79485        0.3660175        99.08556
4.7834                 0.3645005        98.92083        0.2622458       -67.07334        0.2622458       -67.07334        0.3645008        98.92085
4.7848                 0.3630678        98.75951        0.2584874       -68.36795        0.2584874       -68.36795         0.363068        98.75953
4.7862                 0.3617183        98.60064        0.2547288       -69.67912        0.2547289       -69.67911        0.3617185        98.60063
4.7876                 0.3604509        98.44333         0.250971       -71.00719        0.2509711       -71.00719        0.3604511        98.44336
4.789                  0.3592642        98.28671        0.2472146       -72.35258        0.2472146       -72.35258        0.3592644        98.28673
4.7904                 0.3581566        98.12997        0.2434605       -73.71569        0.2434606       -73.71569        0.3581568        98.12999
4.7918                  0.357126        97.97218        0.2397098       -75.09699        0.2397099       -75.09697        0.3571262         97.9722
4.7932                 0.3561702        97.81254        0.2359636       -76.49689        0.2359637       -76.49687        0.3561704        97.81256
4.7946                 0.3552868        97.65032        0.2322231       -77.91585        0.2322232       -77.91585         0.355287        97.65034
4.796                   0.354473        97.48467        0.2284898       -79.35438        0.2284898       -79.35436        0.3544732        97.48469
4.7974                 0.3537259        97.31489         0.224765       -80.81296         0.224765       -80.81295        0.3537261        97.31491
4.7988                 0.3530424        97.14032        0.2210504        -82.2921        0.2210504        -82.2921        0.3530426        97.14034
4.8002                 0.3524191        96.96024        0.2173476       -83.79238        0.2173476       -83.79236        0.3524193        96.96026
4.8016                 0.3518528        96.77412        0.2136585       -85.31433        0.2136585       -85.31431        0.3518529        96.77415
4.803                  0.3513397        96.58131        0.2099849       -86.85853         0.209985       -86.85852        0.3513399        96.58136
4.8044                 0.3508763        96.38135         0.206329        -88.4256         0.206329       -88.42559        0.3508765        96.38137
4.8058                 0.3504587        96.17369        0.2026927       -90.01618        0.2026927       -90.01615        0.3504589        96.17372
4.8072                 0.3500832        95.95796        0.1990784       -91.63087        0.1990784       -91.63086        0.3500834        95.95801
4.8086                 0.3497458        95.73375        0.1954883       -93.27039        0.1954884       -93.27039         0.349746        95.73377
4.81                   0.3494427        95.50069         0.191925       -94.93541        0.1919251        -94.9354        0.3494429        95.50071
4.8114                 0.3491698        95.25848        0.1883909       -96.62665         0.188391       -96.62664          0.34917        95.25851
4.8128                 0.3489235        95.00688        0.1848887       -98.34482        0.1848888       -98.34479        0.3489236        95.00691
4.8142                 0.3486995        94.74566        0.1814212       -100.0907        0.1814212       -100.0906        0.3486997        94.74569
4.8156                 0.3484942        94.47465         0.177991       -101.8649        0.1779911       -101.8649        0.3484943        94.47468
4.817                  0.3483036        94.19371        0.1746012       -103.6683        0.1746013       -103.6683        0.3483038        94.19375
4.8184                 0.3481241        93.90273        0.1712548       -105.5017        0.1712549       -105.5017        0.3481243        93.90276
4.8198                  0.347952        93.60166        0.1679549       -107.3658        0.1679549       -107.3657        0.3479522        93.60168
4.8212                 0.3477836        93.29044        0.1647045       -109.2613        0.1647046       -109.2612        0.3477838        93.29048
4.8226                 0.3476154        92.96909         0.161507       -111.1889         0.161507       -111.1889        0.3476155        92.96913
4.824                   0.347444        92.63763        0.1583656       -113.1494        0.1583657       -113.1494        0.3474441        92.63766
4.8254                  0.347266        92.29611        0.1552838       -115.1434        0.1552838       -115.1433        0.3472662        92.29614
4.8268                 0.3470784        91.94461        0.1522649       -117.1714        0.1522649       -117.1714        0.3470786        91.94464
4.8282                 0.3468779        91.58323        0.1493123       -119.2342        0.1493124       -119.2341        0.3468781        91.58327
4.8296                 0.3466617        91.21209        0.1464297       -121.3319        0.1464297       -121.3319        0.3466618        91.21213
4.831                  0.3464269        90.83133        0.1436204       -123.4652        0.1436205       -123.4651         0.346427        90.83139
4.8324                 0.3461708        90.44113        0.1408881       -125.6341        0.1408881        -125.634        0.3461709        90.44116
4.8338                 0.3458907        90.04162        0.1382362       -127.8388        0.1382362       -127.8387        0.3458909        90.04165
4.8352                 0.3455844          89.633        0.1356681       -130.0792        0.1356681       -130.0792        0.3455846        89.63304
4.8366                 0.3452494        89.21548        0.1331874       -132.3552        0.1331874       -132.3551        0.3452496        89.21551
4.838                  0.3448836        88.78924        0.1307974       -134.6662        0.1307974       -134.6662        0.3448838        88.78928
4.8394                 0.3444849         88.3545        0.1285013       -137.0117        0.1285013       -137.0117         0.344485        88.35456
4.8408                 0.3440514        87.91151        0.1263023       -139.3908        0.1263024       -139.3908        0.3440516        87.91155
4.8422                 0.3435813        87.46045        0.1242035       -141.8024        0.1242035       -141.8023        0.3435814        87.46051
4.8436                 0.3430728        87.00159        0.1222076       -144.2449        0.1222077       -144.2449        0.3430729        87.00163
4.845                  0.3425245        86.53513        0.1203174       -146.7168        0.1203174       -146.7168        0.3425246        86.53518
4.8464                  0.341935        86.06132        0.1185352       -149.2161        0.1185352        -149.216        0.3419351        86.06138
4.8478                 0.3413027        85.58039        0.1168631       -151.7404        0.1168632       -151.7403        0.3413028        85.58045
4.8492                 0.3406267        85.09259        0.1153032       -154.2871        0.1153032       -154.2871        0.3406268        85.09264
4.8506                 0.3399057        84.59814        0.1138568       -156.8535        0.1138568       -156.8534        0.3399058        84.59819
4.852                  0.3391387        84.09729        0.1125252       -159.4363        0.1125253       -159.4362        0.3391389        84.09734
4.8534                  0.338325        83.59025        0.1113093       -162.0321        0.1113094        -162.032         0.338325        83.59032
4.8548                 0.3374635        83.07729        0.1102096       -164.6372        0.1102096       -164.6372        0.3374636        83.07734
4.8562                 0.3365537        82.55859        0.1092261       -167.2479        0.1092262       -167.2479        0.3365538        82.55865
4.8576                 0.3355949        82.03441        0.1083586       -169.8602        0.1083587       -169.8601         0.335595        82.03448
4.859                  0.3345866        81.50495        0.1076064       -172.4699        0.1076064       -172.4699        0.3345867        81.50502
4.8604                 0.3335282        80.97046        0.1069683        -175.073        0.1069684       -175.0729        0.3335283        80.97053
4.8618                 0.3324195        80.43112         0.106443       -177.6653        0.1064431       -177.6652        0.3324196        80.43118
4.8632                   0.33126        79.88715        0.1060287        179.7574        0.1060287        179.7575        0.3312601        79.88722
4.8646                 0.3300495        79.33875        0.1057231         177.199        0.1057232         177.199        0.3300496        79.33883
4.866                  0.3287879        78.78616        0.1055239        174.6633        0.1055239        174.6634         0.328788        78.78621
4.8674                  0.327475        78.22951        0.1054283         172.154        0.1054283        172.1541         0.327475        78.22959
4.8688                 0.3261107        77.66905        0.1054334        169.6746        0.1054335        169.6747        0.3261107        77.66912
4.8702                  0.324695        77.10494         0.105536        167.2282        0.1055361        167.2283         0.324695        77.10503
4.8716                 0.3232279         76.5374        0.1057329        164.8177        0.1057329        164.8178        0.3232279        76.53745