! TOUCHSTONE file generated by CST MICROWAVE STUDIO
! Date and time: Sun Dec  1 17:16:55 2024
! Project name: test_tuning.cst
! Parameters = {airCoaxOuterDiameter=3; chamferAngle=45; chamferWidth=24; connectorLength=10; drillingHoleDiameter=4.1; feedLength=60; flareDiameter=130; flareLength=70; gratingDistance=0; gratingGap=1.90274; outletLength=30; polarizerLength=140; probe1Diameter=1.3; probe1Distance=14; probe1Length=12; probe2Diameter=1.3; probe2Distance=0; probe2Length=12; probeLength=12; smaInnerDiameter=1.3; smaOuterDiameter=4.1; transitionCoefficient=1.33; waveguideFeedLength=30; waveguideSide=50; waveguideThickness=3; wireCount=25; wireDiameter=1.17699}
! Header version: 2024
! Port assignment regex: !\s*Touchstone port\s*([0-9]+)\s*=\s*(CST MWS port|CST DES external port|CST DES block port)\s*(.+)\s* \(\"(.*)\"\)(\s*mode\s*([0-9]+))?.*
! Touchstone port assignment:
! Touchstone port 1 = CST MWS port 1 ("Input1")
! Touchstone port 2 = CST MWS port 2 ("Input2")
# GHz S MA R 50
4.6                    0.1987539       -163.4251        0.6371374        67.13295        0.6371365        67.13298        0.1987547       -163.4256
4.6014                 0.2051254        -163.932        0.6383669        66.19416        0.6383659        66.19421        0.2051261       -163.9325
4.6028                 0.2116235       -164.4245         0.639488        65.24898        0.6394872        65.24901        0.2116241       -164.4249
4.6042                 0.2182716       -164.9079        0.6404966        64.29727        0.6404958        64.29731        0.2182721       -164.9083
4.6056                 0.2250911       -165.3882         0.641387        63.33897        0.6413864        63.33901        0.2250914       -165.3885
4.607                  0.2321005       -165.8714        0.6421534        62.37404        0.6421528         62.3741        0.2321007       -165.8717
4.6084                 0.2393149       -166.3637        0.6427889        61.40258        0.6427884        61.40262        0.2393151        -166.364
4.6098                 0.2467458       -166.8713        0.6432861        60.42469        0.6432857        60.42474        0.2467459       -166.8716
4.6112                 0.2544003       -167.3999        0.6436376        59.44064        0.6436374        59.44068        0.2544004       -167.4001
4.6126                 0.2622813       -167.9549        0.6438358        58.45077        0.6438356        58.45081        0.2622813       -167.9551
4.614                  0.2703869       -168.5412         0.643873        57.45555        0.6438728        57.45559        0.2703869       -168.5413
4.6154                 0.2787112       -169.1628        0.6437422        56.45553         0.643742        56.45556        0.2787112       -169.1629
4.6168                 0.2872437       -169.8232        0.6434364         55.4514        0.6434363        55.45142        0.2872437       -169.8233
4.6182                 0.2959699        -170.525          0.64295        54.44394        0.6429499        54.44397          0.29597       -170.5251
4.6196                 0.3048719         -171.27        0.6422779        53.43403        0.6422778        53.43405         0.304872       -171.2701
4.621                  0.3139281       -172.0596        0.6414165        52.42265        0.6414164        52.42267        0.3139283       -172.0596
4.6224                 0.3231145       -172.8939        0.6403633        51.41085        0.6403632        51.41087        0.3231147        -172.894
4.6238                 0.3324047       -173.7729        0.6391174        50.39976        0.6391174        50.39978        0.3324049       -173.7729
4.6252                 0.3417703       -174.6955        0.6376797        49.39054        0.6376795        49.39056        0.3417706       -174.6956
4.6266                 0.3511819       -175.6606        0.6360523         48.3844        0.6360522        48.38441        0.3511823       -175.6606
4.628                  0.3606093       -176.6662        0.6342397        47.38256        0.6342396        47.38257        0.3606098       -176.6662
4.6294                 0.3700219       -177.7101        0.6322478        46.38624        0.6322477        46.38625        0.3700224       -177.7102
4.6308                 0.3793893       -178.7899        0.6300844        45.39662        0.6300843        45.39662        0.3793899         -178.79
4.6322                 0.3886819       -179.9029         0.627759        44.41485        0.6277588        44.41485        0.3886826       -179.9029
4.6336                 0.3978708         178.954        0.6252827        43.44202        0.6252826        43.44202        0.3978716         178.954
4.635                  0.4069287        177.7837        0.6226684        42.47909        0.6226682         42.4791        0.4069295        177.7837
4.6364                 0.4158298        176.5893          0.61993        41.52698        0.6199297        41.52699        0.4158307        176.5893
4.6378                 0.4245503         175.374        0.6170827         40.5864        0.6170824        40.58641        0.4245513         175.374
4.6392                 0.4330685        174.1409        0.6141427        39.65797        0.6141423        39.65799        0.4330696        174.1409
4.6406                 0.4413653        172.8931        0.6111269        38.74213        0.6111265        38.74215        0.4413663         172.893
4.642                  0.4494235        171.6335        0.6080527        37.83912        0.6080523        37.83915        0.4494246        171.6334
4.6434                 0.4572291         170.365        0.6049375        36.94901        0.6049371        36.94904        0.4572303        170.3649
4.6448                 0.4647705        169.0904        0.6017986        36.07164        0.6017983        36.07167        0.4647716        169.0904
4.6462                 0.4720386        167.8124         0.598653        35.20667        0.5986527        35.20671        0.4720397        167.8123
4.6476                 0.4790271        166.5334        0.5955168        34.35352        0.5955165        34.35357        0.4790283        166.5333
4.649                  0.4857323        165.2556         0.592405        33.51144        0.5924047        33.51149        0.4857334        165.2555
4.6504                 0.4921529        163.9812        0.5893311        32.67945        0.5893308         32.6795        0.4921541        163.9811
4.6518                   0.49829        162.7121        0.5863073        31.85639         0.586307        31.85645        0.4982911         162.712
4.6532                 0.5041469        161.4499        0.5833436        31.04095        0.5833434          31.041         0.504148        161.4498
4.6546                 0.5097287        160.1961        0.5804482        30.23164        0.5804481        30.23171        0.5097298         160.196
4.656                  0.5150427        158.9521        0.5776268        29.42689        0.5776268        29.42696        0.5150437         158.952
4.6574                 0.5200971        157.7188        0.5748829        28.62501        0.5748828        28.62509        0.5200981        157.7187
4.6588                 0.5249018        156.4971        0.5722173        27.82429        0.5722173        27.82436        0.5249029         156.497
4.6602                 0.5294677        155.2875        0.5696286        27.02296        0.5696287        27.02304        0.5294686        155.2874
4.6616                 0.5338061        154.0905        0.5671129         26.2193        0.5671131        26.21938        0.5338069        154.0904
4.663                  0.5379286        152.9063         0.564664        25.41164        0.5646642        25.41171        0.5379295        152.9062
4.6644                 0.5418475        151.7349        0.5622733        24.59838        0.5622736        24.59846        0.5418482        151.7348
4.6658                 0.5455741        150.5761        0.5599306        23.77807        0.5599309        23.77814        0.5455749         150.576
4.6672                   0.54912        149.4296        0.5576235         22.9494        0.5576239        22.94948        0.5491207        149.4294
4.6686                 0.5524955        148.2948        0.5553386        22.11125         0.555339        22.11132        0.5524961        148.2947
4.67                   0.5557102        147.1713        0.5530608         21.2627        0.5530613        21.26277        0.5557108        147.1712
4.6714                 0.5587727        146.0582        0.5507748        20.40306        0.5507753        20.40312        0.5587733        146.0581
4.6728                 0.5616901        144.9549        0.5484642        19.53185        0.5484647        19.53191        0.5616907        144.9548
4.6742                 0.5644683        143.8605        0.5461127        18.64885        0.5461133        18.64891        0.5644688        143.8604
4.6756                 0.5671116        142.7741        0.5437043         17.7541         0.543705        17.75415        0.5671122         142.774
4.677                  0.5696229        141.6949        0.5412235        16.84784        0.5412241        16.84789        0.5696234        141.6948
4.6784                 0.5720037        140.6221        0.5386554        15.93058         0.538656        15.93062        0.5720042         140.622
4.6798                 0.5742539         139.555        0.5359864        15.00302        0.5359871        15.00305        0.5742544        139.5548
4.6812                 0.5763721        138.4927        0.5332045        14.06609        0.5332052        14.06612        0.5763726        138.4926
4.6826                 0.5783559        137.4347         0.530299        13.12089        0.5302998        13.12092        0.5783565        137.4346
4.684                  0.5802018        136.3804        0.5272613        12.16871         0.527262        12.16874        0.5802024        136.3803
4.6854                 0.5819054        135.3296        0.5240847        11.21096        0.5240854        11.21098        0.5819059        135.3295
4.6868                 0.5834619        134.2818        0.5207647        10.24918        0.5207652        10.24919        0.5834625        134.2818
4.6882                 0.5848659        133.2371        0.5172986        9.284995        0.5172994        9.285004        0.5848664         133.237
4.6896                  0.586112        132.1953        0.5136868        8.320096        0.5136875        8.320103        0.5861126        132.1952
4.691                   0.587195        131.1566         0.509931        7.356212        0.5099316        7.356217        0.5871956        131.1565
4.6924                 0.5881099        130.1212        0.5060357        6.395073        0.5060362        6.395075        0.5881105        130.1211
4.6938                 0.5888524        129.0896        0.5020071        5.438387        0.5020077        5.438387         0.588853        129.0895
4.6952                 0.5894192        128.0622        0.4978537        4.487806        0.4978542        4.487804        0.5894198        128.0621
4.6966                 0.5898076        127.0396        0.4935858        3.544896        0.4935863        3.544892        0.5898081        127.0395
4.698                  0.5900164        126.0225        0.4892151        2.611113        0.4892156        2.611108         0.590017        126.0224
4.6994                 0.5900458        125.0116        0.4847549        1.687768        0.4847554        1.687762        0.5900463        125.0115
4.7008                 0.5898969        124.0076        0.4802196        0.776005        0.4802202       0.7759985        0.5898974        124.0075
4.7022                 0.5895732        123.0115        0.4756245      -0.1232255         0.475625      -0.1232327        0.5895737        123.0113
4.7036                 0.5890789        122.0239        0.4709854        -1.00919        0.4709859       -1.009197        0.5890794        122.0237
4.705                  0.5884201        121.0456        0.4663185        -1.88139        0.4663189       -1.881398        0.5884206        121.0455
4.7064                 0.5876045        120.0774        0.4616397       -2.739592        0.4616402       -2.739592        0.5876049        120.0773
4.7078                 0.5866406        119.1198        0.4569649       -3.583765        0.4569653       -3.583765        0.5866411        119.1197
4.7092                 0.5855391        118.1736        0.4523089       -4.414234        0.4523094       -4.414234        0.5855394        118.1734
4.7106                 0.5843108         117.239        0.4476858       -5.231512        0.4476863       -5.231521        0.5843111        117.2389
4.712                   0.582968        116.3165        0.4431084       -6.036421        0.4431088       -6.036432        0.5829683        116.3164
4.7134                 0.5815234        115.4061        0.4385877       -6.830003        0.4385882       -6.830013        0.5815236         115.406
4.7148                 0.5799901         114.508        0.4341332       -7.613524        0.4341337       -7.613535        0.5799903        114.5079
4.7162                 0.5783814         113.622        0.4297524       -8.388455        0.4297529       -8.388466        0.5783815        113.6218
4.7176                 0.5767102        112.7476        0.4254507       -9.156423        0.4254511       -9.156437        0.5767103        112.7475
4.719                  0.5749891        111.8845        0.4212312       -9.919184        0.4212317       -9.919199        0.5749891        111.8843
4.7204                 0.5732298        111.0318         0.417095       -10.67857        0.4170955       -10.67859        0.5732299        111.0317
4.7218                 0.5714431        110.1889         0.413041       -11.43647        0.4130415       -11.43649        0.5714431        110.1888
4.7232                 0.5696382        109.3547         0.409066       -12.19472        0.4090665       -12.19474        0.5696382        109.3546
4.7246                 0.5678231        108.5281        0.4051648       -12.95513        0.4051653       -12.95516         0.567823         108.528
4.726                  0.5660037        107.7078        0.4013305        -13.7194         0.401331       -13.71943        0.5660035        107.7077
4.7274                 0.5641842        106.8926        0.3975547       -14.48907        0.3975552        -14.4891         0.564184        106.8924
4.7288                 0.5623669         106.081        0.3938277       -15.26549        0.3938281       -15.26552        0.5623667        106.0809
4.7302                 0.5605518        105.2716        0.3901388        -16.0498        0.3901393       -16.04984        0.5605515        105.2715
4.7316                  0.558737        104.4632        0.3864768       -16.84288        0.3864773       -16.84293        0.5587367         104.463
4.733                  0.5569185        103.6542        0.3828301       -17.64536        0.3828305       -17.64541        0.5569182        103.6541
4.7344                 0.5550905        102.8435        0.3791869       -18.45757        0.3791873       -18.45762        0.5550902        102.8434
4.7358                 0.5532454        102.0299        0.3755361       -19.27955        0.3755364        -19.2796         0.553245        102.0298
4.7372                  0.551374        101.2124        0.3718668       -20.11105        0.3718672        -20.1111        0.5513736        101.2123
4.7386                 0.5494659          100.39        0.3681695       -20.95154        0.3681698       -20.95161        0.5494656        100.3899
4.74                   0.5475097        99.56209        0.3644353       -21.80026        0.3644356       -21.80032        0.5475093        99.56198
4.7414                 0.5454933        98.72816        0.3606573       -22.65615        0.3606575       -22.65622        0.5454929        98.72808
4.7428                 0.5434038        97.88791        0.3568295       -23.51797        0.3568297       -23.51804        0.5434035        97.88786
4.7442                  0.541229        97.04128        0.3529482       -24.38427        0.3529484       -24.38434        0.5412286         97.0412
4.7456                 0.5389563        96.18838        0.3490112       -25.25346        0.3490114       -25.25353        0.5389559        96.18833
4.747                  0.5365739         95.3296        0.3450183       -26.12382        0.3450185       -26.12389        0.5365735        95.32949
4.7484                 0.5340711        94.46542        0.3409712       -26.99356        0.3409714       -26.99363        0.5340706        94.46534
4.7498                 0.5314379        93.59665        0.3368734       -27.86085        0.3368736       -27.86092        0.5314374        93.59654
4.7512                 0.5286663        92.72415        0.3327303       -28.72388        0.3327304       -28.72396        0.5286658        92.72407
4.7526                 0.5257496        91.84908        0.3285489       -29.58092         0.328549       -29.58099         0.525749        91.84897
4.754                  0.5226831        90.97261        0.3243378       -30.43031        0.3243378       -30.43038        0.5226826         90.9725
4.7554                 0.5194642         90.0961         0.320107       -31.27059         0.320107       -31.27066        0.5194636        90.09599
4.7568                 0.5160922        89.22085        0.3158676       -32.10048        0.3158676       -32.10055        0.5160915        89.22077
4.7582                 0.5125685        88.34845        0.3116317       -32.91897        0.3116316       -32.91904        0.5125679        88.34837
4.7596                 0.5088971        87.48028        0.3074117       -33.72535        0.3074117       -33.72541        0.5088964        87.48017
4.761                  0.5050835        86.61778        0.3032207       -34.51924        0.3032206        -34.5193        0.5050828        86.61773
4.7624                 0.5011357        85.76238        0.2990714       -35.30065        0.2990713        -35.3007         0.501135         85.7623
4.7638                 0.4970632        84.91535        0.2949767       -36.06996        0.2949765       -36.07002        0.4970624        84.91525
4.7652                 0.4928773        84.07785        0.2909481       -36.82803         0.290948       -36.82808        0.4928764        84.07777
4.7666                 0.4885906        83.25092         0.286997       -37.57608        0.2869968       -37.57614        0.4885897        83.25087
4.768                  0.4842169        82.43542        0.2831327       -38.31582        0.2831326       -38.31587         0.484216        82.43534
4.7694                 0.4797709         81.6319        0.2793637       -39.04933        0.2793635       -39.04937        0.4797698        81.63182
4.7708                 0.4752673        80.84074        0.2756962       -39.77909         0.275696       -39.77913        0.4752662        80.84069
4.7722                 0.4707213        80.06206        0.2721347       -40.50792        0.2721346       -40.50795        0.4707201        80.06201
4.7736                 0.4661475        79.29567        0.2686818       -41.23892        0.2686817       -41.23896        0.4661463        79.29562
4.775                    0.46156        78.54108        0.2653375       -41.97545        0.2653374       -41.97548        0.4615588        78.54106
4.7764                 0.4569716        77.79759        0.2621001       -42.72098        0.2620999       -42.72101        0.4569703        77.79756
4.7778                 0.4523938        77.06412        0.2589653       -43.47908        0.2589651       -43.47911        0.4523924        77.06413
4.7792                  0.447836        76.33941        0.2559272       -44.25332         0.255927       -44.25334        0.4478347        76.33939
4.7806                 0.4433059        75.62188        0.2529779       -45.04718        0.2529777       -45.04719        0.4433045        75.62188
4.782                  0.4388086        74.90977        0.2501079       -45.86397        0.2501077       -45.86399        0.4388072        74.90978
4.7834                 0.4343467        74.20118        0.2473062       -46.70682         0.247306       -46.70683        0.4343453        74.20121
4.7848                 0.4299201        73.49407        0.2445608       -47.57851        0.2445607       -47.57852        0.4299187        73.49411
4.7862                 0.4255261        72.78634        0.2418591       -48.48153         0.241859       -48.48155        0.4255247        72.78638
4.7876                 0.4211594        72.07584        0.2391879       -49.41802        0.2391877       -49.41802         0.421158         72.0759
4.789                  0.4168117        71.36051        0.2365338       -50.38966        0.2365336       -50.38967        0.4168104         71.3606
4.7904                 0.4124728        70.63841        0.2338837       -51.39781        0.2338836       -51.39781        0.4124716        70.63852
4.7918                 0.4081299        69.90776        0.2312252       -52.44336        0.2312251       -52.44336        0.4081287        69.90786
4.7932                 0.4037684        69.16699        0.2285465       -53.52688        0.2285464       -53.52687        0.4037673        69.16709
4.7946                 0.3993725         68.4148        0.2258369       -54.64853        0.2258367       -54.64851        0.3993715        68.41493
4.796                  0.3949247        67.65027        0.2230869       -55.80819        0.2230868       -55.80818        0.3949237        67.65042
4.7974                 0.3904072        66.87282        0.2202887       -57.00544        0.2202885       -57.00543        0.3904064        66.87297
4.7988                 0.3858019        66.08226        0.2174357       -58.23963        0.2174355       -58.23962        0.3858011        66.08242
4.8002                 0.3810906        65.27884        0.2145233       -59.50997        0.2145232       -59.50994        0.3810899        65.27901
4.8016                 0.3762562        64.46326        0.2115485       -60.81547        0.2115484       -60.81544        0.3762555        64.46344
4.803                  0.3712823        63.63668        0.2085102       -62.15514        0.2085101       -62.15511        0.3712817        63.63685
4.8044                 0.3661542         62.8007        0.2054088       -63.52801        0.2054087       -63.52798        0.3661538        62.80088
4.8058                 0.3608592        61.95744        0.2022466       -64.93315        0.2022465        -64.9331        0.3608589        61.95763
4.8072                 0.3553869        61.10942        0.1990272       -66.36977        0.1990272       -66.36974        0.3553867         61.1096
4.8086                 0.3497294        60.25966         0.195756       -67.83733         0.195756       -67.83729        0.3497292        60.25983
4.81                   0.3438817        59.41157        0.1924396       -69.33555        0.1924395       -69.33549        0.3438816        59.41174
4.8114                  0.337842        58.56903        0.1890854       -70.86446        0.1890854       -70.86441         0.337842         58.5692
4.8128                  0.331612        57.73628        0.1857023       -72.42458        0.1857023       -72.42452         0.331612        57.73643
4.8142                 0.3251965        56.91794        0.1822994       -74.01688        0.1822995       -74.01681        0.3251966        56.91808
4.8156                 0.3186041        56.11897        0.1788868       -75.64289        0.1788868       -75.64283        0.3186043        56.11911
4.817                  0.3118469        55.34464        0.1754744       -77.30477        0.1754744        -77.3047         0.311847        55.34477
4.8184                 0.3049404        54.60047        0.1720725       -79.00529        0.1720726       -79.00523        0.3049406        54.60059
4.8198                 0.2979035         53.8922        0.1686912         -80.748        0.1686912       -80.74792        0.2979037        53.89231
4.8212                 0.2907586        53.22567        0.1653401       -82.53712        0.1653402       -82.53707        0.2907588        53.22576
4.8226                 0.2835308        52.60682        0.1620286       -84.37774        0.1620287       -84.37767         0.283531        52.60691
4.824                  0.2762481        52.04156        0.1587652       -86.27563        0.1587653       -86.27554        0.2762483        52.04162
4.8254                 0.2689409         51.5356        0.1555578       -88.23735        0.1555579       -88.23728        0.2689411        51.53565
4.8268                 0.2616414        51.09444        0.1524135       -90.27027        0.1524136       -90.27018        0.2616415        51.09447
4.8282                 0.2543832        50.72311        0.1493388       -92.38238        0.1493389       -92.38233        0.2543832        50.72313
4.8296                 0.2472008        50.42605        0.1463392       -94.58241        0.1463394       -94.58234        0.2472009        50.42605
4.831                   0.240129        50.20688          0.14342        -96.8796        0.1434202       -96.87953        0.2401289        50.20688
4.8324                 0.2332014        50.06828        0.1405859       -99.28367        0.1405861       -99.28362        0.2332013        50.06827
4.8338                 0.2264508        50.01165        0.1378413       -101.8047        0.1378415       -101.8047        0.2264506        50.01164
4.8352                 0.2199072        50.03703         0.135191       -104.4532        0.1351913       -104.4531         0.219907        50.03702
4.8366                 0.2135976        50.14288        0.1326401       -107.2393        0.1326403       -107.2393        0.2135973        50.14286
4.838                  0.2075446        50.32595        0.1301943       -110.1735        0.1301945       -110.1735        0.2075443        50.32593
4.8394                  0.201766        50.58122        0.1278606       -113.2658        0.1278609       -113.2657        0.2017655        50.58121
4.8408                 0.1962733        50.90196        0.1256475       -116.5255        0.1256477       -116.5255        0.1962727        50.90196
4.8422                 0.1910718        51.27984        0.1235649       -119.9612        0.1235652       -119.9612        0.1910712        51.27986
4.8436                 0.1861598        51.70519        0.1216252       -123.5803        0.1216254       -123.5803        0.1861591        51.70522
4.845                  0.1815281        52.16735        0.1198424       -127.3887        0.1198426       -127.3887        0.1815274         52.1674
4.8464                 0.1771606        52.65515        0.1182331       -131.3902        0.1182334       -131.3901        0.1771598        52.65522
4.8478                 0.1730342        53.15745        0.1168159       -135.5861        0.1168162       -135.5861        0.1730334        53.15756
4.8492                 0.1691198        53.66372        0.1156113       -139.9751        0.1156115       -139.9751         0.169119        53.66386
4.8506                  0.165383        54.16461         0.114641       -144.5524        0.1146413       -144.5524        0.1653822        54.16477
4.852                  0.1617852        54.65253        0.1139279       -149.3094        0.1139281       -149.3094        0.1617844        54.65272
4.8534                 0.1582853        55.12211        0.1134944        -154.234        0.1134946        -154.234        0.1582845        55.12235
4.8548                 0.1548405         55.5707        0.1133621       -159.3099        0.1133623       -159.3099        0.1548398        55.57097
4.8562                 0.1514085        55.99862        0.1135506       -164.5172        0.1135508       -164.5172        0.1514078        55.99892
4.8576                 0.1479482        56.40952         0.114076        -169.833        0.1140762        -169.833        0.1479476        56.40984
4.859                  0.1444217        56.81056        0.1149505       -175.2319        0.1149507       -175.2319        0.1444211        56.81091
4.8604                 0.1407951        57.21269        0.1161809        179.3129        0.1161811        179.3128        0.1407946        57.21308
4.8618                 0.1370403        57.63084        0.1177684        173.8283        0.1177686        173.8283        0.1370398        57.63126
4.8632                 0.1331358        58.08427        0.1197081        168.3407        0.1197083        168.3407        0.1331354         58.0847
4.8646                 0.1290682        58.59682        0.1219891        162.8745        0.1219893        162.8745        0.1290679        58.59728
4.866                  0.1248332        59.19753        0.1245945        157.4512        0.1245947        157.4512         0.124833        59.19801
4.8674                 0.1204374        59.92107        0.1275021        152.0896        0.1275023        152.0896        0.1204372        59.92157
4.8688                 0.1158994        60.80843        0.1306852        146.8045        0.1306853        146.8045        0.1158993        60.80894
4.8702                 0.1112519        61.90746         0.134113        141.6076        0.1341131        141.6076        0.1112519        61.90799
4.8716                 0.1065442        63.27318        0.1377518        136.5071         0.137752        136.5071        0.1065442        63.27373