! TOUCHSTONE file generated by CST MICROWAVE STUDIO
! Date and time: Sun Dec  1 17:17:03 2024
! Project name: test_tuning.cst
! Parameters = {airCoaxOuterDiameter=3; chamferAngle=45; chamferWidth=24; connectorLength=10; drillingHoleDiameter=4.1; feedLength=60; flareDiameter=130; flareLength=70; gratingDistance=0; gratingGap=1.90274; outletLength=30; polarizerLength=102; probe1Diameter=1.3; probe1Distance=14; probe1Length=12; probe2Diameter=1.3; probe2Distance=0; probe2Length=12; probeLength=12; smaInnerDiameter=1.3; smaOuterDiameter=4.1; transitionCoefficient=1.33; waveguideFeedLength=30; waveguideSide=50; waveguideThickness=3; wireCount=25; wireDiameter=1.17699}
! Header version: 2024
! Port assignment regex: !\s*Touchstone port\s*([0-9]+)\s*=\s*(CST MWS port|CST DES external port|CST DES block port)\s*(.+)\s* \(\"(.*)\"\)(\s*mode\s*([0-9]+))?.*
! Touchstone port assignment:
! Touchstone port 1 = CST MWS port 1 ("Input1")
! Touchstone port 2 = CST MWS port 2 ("Input2")
# GHz S MA R 50
4.6                    0.2067883       -165.0876        0.6819381        67.18428        0.6819379        67.18428        0.2067886       -165.0877
4.6014                 0.2135205       -166.1021        0.6831776        66.24436        0.6831773        66.24437        0.2135208       -166.1022
4.6028                 0.2202404       -167.1106        0.6843419        65.29915        0.6843416        65.29915        0.2202407       -167.1107
4.6042                 0.2269456       -168.1139        0.6854284        64.34856        0.6854281        64.34857        0.2269459       -168.1141
4.6056                  0.233634       -169.1127        0.6864342        63.39255         0.686434        63.39256        0.2336342       -169.1129
4.607                  0.2403032       -170.1076        0.6873568        62.43107        0.6873566        62.43107        0.2403035       -170.1077
4.6084                  0.246951       -171.0991        0.6881929        61.46411        0.6881926        61.46412        0.2469512       -171.0992
4.6098                 0.2535748       -172.0877        0.6889395        60.49167        0.6889393        60.49168        0.2535751       -172.0878
4.6112                 0.2601722        -173.074        0.6895936        59.51379        0.6895934         59.5138        0.2601724       -173.0741
4.6126                 0.2667404       -174.0583        0.6901521        58.53053        0.6901519        58.53054        0.2667407       -174.0584
4.614                  0.2732767       -175.0412         0.690612        57.54193        0.6906118        57.54195        0.2732769       -175.0413
4.6154                 0.2797779        -176.023        0.6909705        56.54812        0.6909703        56.54813        0.2797781       -176.0231
4.6168                  0.286241        -177.004        0.6912249        55.54919        0.6912247         55.5492        0.2862412       -177.0041
4.6182                 0.2926625       -177.9846        0.6913727        54.54528        0.6913726        54.54529        0.2926627       -177.9847
4.6196                  0.299039       -178.9651        0.6914116        53.53654        0.6914116        53.53655        0.2990392       -178.9651
4.621                  0.3053666       -179.9456        0.6913398        52.52313        0.6913399        52.52313        0.3053669       -179.9456
4.6224                 0.3116416        179.0738        0.6911554         51.5052        0.6911555        51.50521        0.3116419        179.0737
4.6238                 0.3178601        178.0927        0.6908572        50.48294        0.6908572        50.48294        0.3178603        178.0926
4.6252                 0.3240176        177.1112        0.6904438         49.4565        0.6904438        49.45651        0.3240179        177.1112
4.6266                 0.3301104        176.1292        0.6899145        48.42608        0.6899145        48.42608        0.3301106        176.1292
4.628                  0.3361339        175.1468        0.6892687        47.39182        0.6892687        47.39182        0.3361342        175.1467
4.6294                 0.3420839        174.1639         0.688506        46.35388        0.6885061        46.35388        0.3420842        174.1638
4.6308                 0.3479562        173.1805        0.6876266        45.31242        0.6876266        45.31241        0.3479565        173.1805
4.6322                 0.3537465         172.197        0.6866305        44.26756        0.6866305        44.26755        0.3537468        172.1969
4.6336                 0.3594506        171.2132        0.6855179        43.21942        0.6855179        43.21942         0.359451        171.2132
4.635                  0.3650645        170.2296        0.6842895        42.16812        0.6842895        42.16811        0.3650648        170.2295
4.6364                 0.3705841        169.2461        0.6829459        41.11373        0.6829459        41.11372        0.3705844         169.246
4.6378                 0.3760057         168.263        0.6814876        40.05633        0.6814877        40.05632         0.376006         168.263
4.6392                 0.3813255        167.2806        0.6799156        38.99596        0.6799156        38.99595        0.3813259        167.2806
4.6406                 0.3865401        166.2991        0.6782305        37.93267        0.6782305        37.93265        0.3865404        166.2991
4.642                   0.391646        165.3187         0.676433        36.86645         0.676433        36.86644        0.3916464        165.3187
4.6434                 0.3966403        164.3397        0.6745238        35.79732        0.6745239         35.7973        0.3966407        164.3397
4.6448                 0.4015199        163.3624        0.6725037        34.72525        0.6725036        34.72524        0.4015203        163.3623
4.6462                 0.4062821        162.3869         0.670373        33.65024         0.670373        33.65022        0.4062825        162.3869
4.6476                 0.4109242        161.4136        0.6681322        32.57222        0.6681321        32.57221        0.4109246        161.4136
4.649                  0.4154439        160.4428        0.6657817        31.49115        0.6657815        31.49114        0.4154443        160.4427
4.6504                 0.4198389        159.4746        0.6633214        30.40698        0.6633212        30.40697        0.4198393        159.4745
4.6518                 0.4241071        158.5093        0.6607514        29.31965        0.6607514        29.31963        0.4241075        158.5093
4.6532                 0.4282465        157.5473        0.6580718        28.22906        0.6580717        28.22905        0.4282468        157.5472
4.6546                 0.4322552        156.5887         0.655282        27.13518        0.6552819        27.13516        0.4322555        156.5887
4.656                  0.4361316        155.6339        0.6523818        26.03791        0.6523816         26.0379         0.436132        155.6339
4.6574                  0.439874        154.6831        0.6493705        24.93718        0.6493705        24.93717        0.4398744         154.683
4.6588                  0.443481        153.7365        0.6462476        23.83294        0.6462474        23.83293        0.4434815        153.7365
4.6602                 0.4469514        152.7947        0.6430121         22.7251        0.6430119         22.7251        0.4469517        152.7946
4.6616                 0.4502837        151.8577         0.639663        21.61361        0.6396629        21.61361        0.4502842        151.8577
4.663                  0.4534773         150.926        0.6361995        20.49842        0.6361993        20.49841        0.4534776         150.926
4.6644                  0.456531        149.9999        0.6326202        19.37945          0.63262        19.37945        0.4565314        149.9999
4.6658                 0.4594445        149.0799         0.628924        18.25669        0.6289238        18.25669        0.4594449        149.0798
4.6672                 0.4622175        148.1662        0.6251095        17.13009        0.6251094        17.13009        0.4622178        148.1662
4.6686                 0.4648499        147.2595        0.6211751        15.99963        0.6211751        15.99963        0.4648502        147.2594
4.67                   0.4673422          146.36        0.6171195         14.8653        0.6171194         14.8653        0.4673426          146.36
4.6714                 0.4696953        145.4684         0.612941         13.7271        0.6129409         13.7271        0.4696956        145.4684
4.6728                 0.4719105        144.5851        0.6086377        12.58504        0.6086377        12.58504        0.4719109        144.5851
4.6742                   0.47399        143.7106        0.6042081        11.43917         0.604208        11.43917        0.4739903        143.7106
4.6756                  0.475936        142.8456        0.5996501        10.28954        0.5996501        10.28954        0.4759364        142.8456
4.677                   0.477752        141.9905         0.594962        9.136226         0.594962         9.13622        0.4777523        141.9905
4.6784                 0.4794417        141.1459        0.5901418        7.979333        0.5901418        7.979326        0.4794421        141.1459
4.6798                 0.4810102        140.3123        0.5851875           6.819        0.5851875        6.818991        0.4810105        140.3123
4.6812                 0.4824627        139.4903        0.5800971        5.655396        0.5800971        5.655385        0.4824632        139.4904
4.6826                 0.4838058        138.6804        0.5748687         4.48873        0.5748687        4.488718        0.4838062        138.6804
4.684                  0.4850465         137.883        0.5695004        3.319256        0.5695003        3.319242         0.485047         137.883
4.6854                  0.486193        137.0984        0.5639903        2.147274        0.5639904        2.147257        0.4861935        137.0985
4.6868                  0.487254        136.3271         0.558337       0.9731382         0.558337       0.9731195        0.4872545        136.3271
4.6882                 0.4882388        135.5692        0.5525387       -0.202739        0.5525387      -0.2027597        0.4882394        135.5692
4.6896                 0.4891578        134.8248        0.5465942       -1.379881        0.5465942       -1.379903        0.4891583        134.8248
4.691                  0.4900214         134.094        0.5405028       -2.557742        0.5405027       -2.557767         0.490022         134.094
4.6924                  0.490841        133.3766        0.5342636       -3.735707        0.5342636       -3.735732        0.4908416        133.3767
4.6938                 0.4916277        132.6725        0.5278766       -4.913077        0.5278766       -4.913103        0.4916283        132.6725
4.6952                 0.4923933        131.9812        0.5213421       -6.089076        0.5213421       -6.089102        0.4923938        131.9812
4.6966                  0.493149        131.3021        0.5146611       -7.262836         0.514661       -7.262866        0.4931496        131.3022
4.698                  0.4939062        130.6346        0.5078349       -8.433411        0.5078347       -8.433438        0.4939068        130.6346
4.6994                 0.4946757        129.9779        0.5008658       -9.599764        0.5008657       -9.599791        0.4946763        129.9779
4.7008                 0.4954677        129.3308        0.4937569       -10.76074        0.4937567       -10.76074        0.4954683        129.3308
4.7022                 0.4962915        128.6923        0.4865119       -11.91511        0.4865117       -11.91514        0.4962921        128.6923
4.7036                 0.4971556         128.061        0.4791356       -13.06153        0.4791354       -13.06156        0.4971562         128.061
4.705                  0.4980671        127.4356        0.4716335       -14.19866        0.4716333       -14.19869        0.4980677        127.4357
4.7064                 0.4990317        126.8147        0.4640124       -15.32492        0.4640122       -15.32495        0.4990323        126.8146
4.7078                 0.5000537        126.1964        0.4562798       -16.43878        0.4562796       -16.43878        0.5000543        126.1964
4.7092                 0.5011357        125.5793        0.4484445       -17.53851        0.4484442       -17.53854        0.5011363        125.5793
4.7106                 0.5022788        124.9618        0.4405158       -18.62242        0.4405155       -18.62244        0.5022794        124.9618
4.712                  0.5034821         124.342        0.4325047       -19.68869        0.4325044        -19.6887        0.5034827         124.342
4.7134                  0.504743        123.7185        0.4244227       -20.73545        0.4244224       -20.73545        0.5047435        123.7185
4.7148                  0.506057        123.0896        0.4162824       -21.76081        0.4162821       -21.76081        0.5060576        123.0896
4.7162                 0.5074182        122.4539        0.4080975       -22.76283        0.4080972       -22.76283        0.5074188        122.4539
4.7176                 0.5088188        121.8099         0.399882        -23.7396        0.3998818        -23.7396        0.5088194        121.8099
4.719                  0.5102497        121.1565        0.3916512       -24.68918         0.391651       -24.68917        0.5102503        121.1564
4.7204                 0.5117003        120.4924        0.3834208       -25.60967        0.3834205       -25.60966        0.5117008        120.4924
4.7218                  0.513159        119.8169        0.3752068       -26.49923        0.3752066       -26.49922        0.5131595        119.8169
4.7232                 0.5146131        119.1291        0.3670261       -27.35609        0.3670259       -27.35608        0.5146136        119.1291
4.7246                 0.5160493        118.4285        0.3588953        -28.1786        0.3588952       -28.17858        0.5160497        118.4285
4.726                  0.5174537        117.7146        0.3508314       -28.96522        0.3508313        -28.9652        0.5174542        117.7146
4.7274                 0.5188122        116.9874        0.3428512        -29.7146         0.342851       -29.71457        0.5188127        116.9874
4.7288                 0.5201106        116.2467         0.334971       -30.42558        0.3349709       -30.42555         0.520111        116.2467
4.7302                 0.5213349        115.4928        0.3272071        -31.0972        0.3272069       -31.09717        0.5213353        115.4928
4.7316                 0.5224714        114.7261        0.3195746        -31.7288        0.3195745       -31.72876        0.5224718        114.7261
4.733                  0.5235073        113.9469         0.312088       -32.31997        0.3120879       -32.31994        0.5235076        113.9469
4.7344                 0.5244301        113.1561        0.3047607       -32.87063        0.3047606        -32.8706        0.5244305        113.1561
4.7358                 0.5252287        112.3543        0.2976049       -33.38101        0.2976048       -33.38097         0.525229        112.3543
4.7372                 0.5258929        111.5425        0.2906311       -33.85169        0.2906311       -33.85165        0.5258932        111.5425
4.7386                 0.5264139        110.7217        0.2838486       -34.28358        0.2838486       -34.28355        0.5264142        110.7217
4.74                   0.5267838        109.8928        0.2772647       -34.67797        0.2772646       -34.67794        0.5267841        109.8928
4.7414                 0.5269966        109.0571        0.2708848       -35.03645        0.2708848       -35.03641        0.5269968        109.0571
4.7428                 0.5270475        108.2157        0.2647128       -35.36093        0.2647128        -35.3609        0.5270477        108.2157
4.7442                  0.526933        107.3698        0.2587502        -35.6536        0.2587502       -35.65356        0.5269333        107.3698
4.7456                 0.5266514        106.5206        0.2529969       -35.91688        0.2529969       -35.91684        0.5266515        106.5206
4.747                  0.5262019        105.6693        0.2474508       -36.15336        0.2474508       -36.15332        0.5262021        105.6692
4.7484                 0.5255857        104.8169         0.242108       -36.36579        0.2421081       -36.36575        0.5255858        104.8169
4.7498                 0.5248048        103.9647         0.236963       -36.55693        0.2369631       -36.55689        0.5248049        103.9647
4.7512                 0.5238625        103.1137        0.2320088       -36.72957        0.2320089       -36.72954        0.5238626        103.1137
4.7526                 0.5227632        102.2648         0.227237       -36.88642        0.2272371       -36.88638        0.5227633        102.2648
4.754                  0.5215122         101.419        0.2226383       -37.03002        0.2226384       -37.02998        0.5215123         101.419
4.7554                 0.5201159        100.5771        0.2182025       -37.16273        0.2182026       -37.16268        0.5201159        100.5771
4.7568                 0.5185809        99.73975         0.213919       -37.28664        0.2139191        -37.2866         0.518581        99.73975
4.7582                 0.5169146         98.9077        0.2097767       -37.40355        0.2097768       -37.40351        0.5169147         98.9077
4.7596                 0.5151249        98.08148        0.2057646       -37.51492        0.2057648        -37.5149        0.5151249        98.08148
4.761                  0.5132195        97.26144         0.201872       -37.62188        0.2018722       -37.62185        0.5132196        97.26146
4.7624                 0.5112066        96.44795        0.1980886       -37.72515        0.1980888       -37.72513        0.5112067        96.44797
4.7638                 0.5090941        95.64125        0.1944045       -37.82515        0.1944047       -37.82512        0.5090942         95.6413
4.7652                 0.5068897        94.84148        0.1908111       -37.92192        0.1908113        -37.9219        0.5068898         94.8415
4.7666                 0.5046011        94.04868        0.1873002       -38.01522        0.1873005        -38.0152        0.5046011         94.0487
4.768                  0.5022351        93.26281        0.1838652       -38.10449        0.1838654       -38.10448        0.5022351        93.26284
4.7694                 0.4997984        92.48377        0.1805001       -38.18898        0.1805003       -38.18897        0.4997984         92.4838
4.7708                 0.4972971        91.71144        0.1772002       -38.26774        0.1772005       -38.26774        0.4972971        91.71146
4.7722                 0.4947365        90.94554        0.1739621       -38.33969        0.1739623       -38.33971        0.4947366        90.94556
4.7736                 0.4921217        90.18587        0.1707831       -38.40371        0.1707834       -38.40372        0.4921217        90.18592
4.775                  0.4894567        89.43214        0.1676617       -38.45861        0.1676619       -38.45864        0.4894568        89.43219
4.7764                 0.4867453        88.68407        0.1645971        -38.5033        0.1645974       -38.50333        0.4867454        88.68415
4.7778                 0.4839906        87.94138        0.1615894       -38.53674        0.1615897       -38.53679        0.4839906        87.94141
4.7792                 0.4811948        87.20368        0.1586391        -38.5581        0.1586393       -38.55816        0.4811949        87.20373
4.7806                 0.4783603        86.47079        0.1557472       -38.56669        0.1557474       -38.56676        0.4783603        86.47085
4.782                  0.4754886         85.7424         0.152915       -38.56206        0.1529152       -38.56214        0.4754886        85.74246
4.7834                 0.4725809        85.01829        0.1501437       -38.54402        0.1501439        -38.5441        0.4725809        85.01832
4.7848                 0.4696383        84.29823        0.1474347       -38.51262        0.1474349       -38.51271        0.4696384        84.29831
4.7862                 0.4666616        83.58211         0.144789       -38.46822        0.1447892       -38.46832        0.4666616        83.58214
4.7876                 0.4636516        82.86973        0.1422074        -38.4114        0.1422075        -38.4115        0.4636516        82.86979
4.789                  0.4606088        82.16104          0.13969       -38.34302        0.1396901       -38.34312        0.4606089        82.16109
4.7904                 0.4575341         81.4559        0.1372367        -38.2641        0.1372367       -38.26421        0.4575342        81.45599
4.7918                 0.4544281         80.7544        0.1348464       -38.17588        0.1348464       -38.17599        0.4544281        80.75445
4.7932                 0.4512918        80.05644        0.1325177       -38.07968        0.1325177       -38.07979        0.4512918        80.05648
4.7946                 0.4481262        79.36201        0.1302484       -37.97688        0.1302484       -37.97699        0.4481262        79.36206
4.796                  0.4449325        78.67119        0.1280357       -37.86887        0.1280357       -37.86899        0.4449326        78.67125
4.7974                 0.4417123        77.98398        0.1258765       -37.75697        0.1258764       -37.75708        0.4417124        77.98404
4.7988                 0.4384672        77.30041        0.1237668       -37.64235        0.1237668       -37.64245        0.4384673        77.30047
4.8002                 0.4351991        76.62048        0.1217027       -37.52599        0.1217026       -37.52609         0.435199        76.62055
4.8016                 0.4319097        75.94423        0.1196796       -37.40866        0.1196795       -37.40875        0.4319097         75.9443
4.803                  0.4286014        75.27162        0.1176931       -37.29079         0.117693       -37.29088        0.4286015        75.27167
4.8044                 0.4252764        74.60259        0.1157388       -37.17256        0.1157386       -37.17263        0.4252764        74.60265
4.8058                 0.4219369        73.93706        0.1138122       -37.05373         0.113812        -37.0538        0.4219369        73.93713
4.8072                 0.4185852        73.27495        0.1119093       -36.93377        0.1119092       -36.93383        0.4185853          73.275
4.8086                 0.4152236        72.61606        0.1100264       -36.81178        0.1100263       -36.81183        0.4152236        72.61612
4.81                   0.4118541        71.96023        0.1081604       -36.68653        0.1081602       -36.68657        0.4118542        71.96029
4.8114                 0.4084787        71.30721        0.1063084       -36.55646        0.1063083        -36.5565        0.4084788        71.30728
4.8128                 0.4050993        70.65674        0.1044686       -36.41981        0.1044685       -36.41983        0.4050994        70.65681
4.8142                 0.4017173         70.0085        0.1026396       -36.27452        0.1026394       -36.27453        0.4017174        70.00859
4.8156                 0.3983341         69.3622        0.1008206        -36.1184        0.1008205       -36.11841        0.3983342        69.36227
4.817                  0.3949505        68.71744        0.0990117       -35.94916       0.09901156       -35.94916        0.3949506         68.7175
4.8184                 0.3915674        68.07386       0.09721344       -35.76443       0.09721331       -35.76443        0.3915675        68.07392
4.8198                  0.388185        67.43104       0.09542703       -35.56189        0.0954269       -35.56189        0.3881851        67.43111
4.8212                 0.3848034        66.78862       0.09365418       -35.33931       0.09365406        -35.3393        0.3848035        66.78869
4.8226                 0.3814224        66.14621       0.09189696       -35.09458       0.09189687       -35.09456        0.3814225        66.14626
4.824                  0.3780415        65.50338       0.09015783       -34.82583       0.09015774        -34.8258        0.3780416        65.50343
4.8254                 0.3746599        64.85979       0.08843938       -34.53142       0.08843928        -34.5314          0.37466        64.85985
4.8268                 0.3712767        64.21508       0.08674429       -34.21005       0.08674422       -34.21002        0.3712768        64.21514
4.8282                 0.3678908         63.5689       0.08507518       -33.86072       0.08507512       -33.86069        0.3678909        63.56895
4.8296                  0.364501        62.92097       0.08343453        -33.4828       0.08343445       -33.48277        0.3645011        62.92103
4.831                   0.361106          62.271       0.08182446       -33.07599       0.08182439       -33.07596        0.3611061        62.27105
4.8324                 0.3577045        61.61875       0.08024676       -32.64034        0.0802467        -32.6403        0.3577045        61.61881
4.8338                 0.3542951        60.96401       0.07870275       -32.17614        0.0787027       -32.17611        0.3542951        60.96407
4.8352                 0.3508766        60.30658       0.07719319       -31.68396       0.07719315       -31.68392        0.3508767        60.30664
4.8366                 0.3474479        59.64631        0.0757183       -31.16447       0.07571828       -31.16443         0.347448        59.64637
4.838                  0.3440081        58.98306       0.07427772       -30.61844        0.0742777       -30.61839         0.344008        58.98311
4.8394                  0.340556        58.31671       0.07287053       -30.04655       0.07287051        -30.0465        0.3405561        58.31675
4.8408                 0.3370912        57.64712       0.07149531       -29.44934        0.0714953       -29.44929        0.3370912        57.64717
4.8422                  0.333613        56.97422       0.07015023       -28.82705       0.07015022         -28.827        0.3336129        56.97427
4.8436                  0.330121        56.29787        0.0688331       -28.17954        0.0688331       -28.17949        0.3301209        56.29791
4.845                   0.326615        55.61796        0.0675416       -27.50613        0.0675416       -27.50609         0.326615          55.618
4.8464                  0.323095        54.93433       0.06627328       -26.80556       0.06627329       -26.80552        0.3230949        54.93438
4.8478                 0.3195609        54.24684       0.06502585       -26.07587       0.06502586       -26.07583        0.3195608        54.24689
4.8492                 0.3160129         53.5553       0.06379726       -25.31434       0.06379727       -25.31431        0.3160128        53.55534
4.8506                 0.3124512        52.85947       0.06258586        -24.5175       0.06258589       -24.51747        0.3124511         52.8595
4.852                  0.3088759        52.15907       0.06139062       -23.68107       0.06139065       -23.68104        0.3088757        52.15912
4.8534                 0.3052871        51.45382       0.06021121       -22.80001       0.06021124       -22.79998         0.305287        51.45387
4.8548                 0.3016852        50.74335       0.05904819       -21.86859       0.05904822       -21.86857         0.301685         50.7434
4.8562                   0.29807        50.02725       0.05790307       -20.88049        0.0579031       -20.88048        0.2980698         50.0273
4.8576                 0.2944413         49.3051       0.05677845       -19.82893       0.05677848       -19.82892        0.2944412        49.30515
4.859                  0.2907992        48.57639       0.05567804       -18.70687       0.05567808       -18.70687         0.290799        48.57643
4.8604                  0.287143         47.8406       0.05460675       -17.50726       0.05460678       -17.50726        0.2871428        47.84065
4.8618                 0.2834722        47.09715       0.05357062        -16.2233       0.05357065       -16.22331         0.283472         47.0972
4.8632                 0.2797859        46.34544       0.05257681       -14.84884       0.05257684       -14.84885        0.2797857         46.3455
4.8646                 0.2760832        45.58484       0.05163354       -13.37872       0.05163356       -13.37873         0.276083         45.5849
4.866                  0.2723627        44.81468       0.05074985       -11.80923       0.05074987       -11.80925        0.2723625        44.81474
4.8674                 0.2686231        44.03429       0.04993555       -10.13857       0.04993556       -10.13859        0.2686228        44.03436
4.8688                 0.2648628        43.24297       0.04920085       -8.367253       0.04920085       -8.367274        0.2648625        43.24304
4.8702                 0.2610799        42.44002       0.04855615       -6.498541       0.04855615       -6.498564        0.2610796        42.44009
4.8716                 0.2572726         41.6247       0.04801169       -4.538709       0.04801169        -4.53873        0.2572723        41.62478