! TOUCHSTONE file generated by CST MICROWAVE STUDIO
! Date and time: Sun Dec  1 17:16:56 2024
! Project name: test_tuning.cst
! Parameters = {airCoaxOuterDiameter=3; chamferAngle=45; chamferWidth=24; connectorLength=10; drillingHoleDiameter=4.1; feedLength=60; flareDiameter=130; flareLength=70; gratingDistance=0; gratingGap=1.90274; outletLength=30; polarizerLength=142; probe1Diameter=1.3; probe1Distance=14; probe1Length=12; probe2Diameter=1.3; probe2Distance=0; probe2Length=12; probeLength=12; smaInnerDiameter=1.3; smaOuterDiameter=4.1; transitionCoefficient=1.33; waveguideFeedLength=30; waveguideSide=50; waveguideThickness=3; wireCount=25; wireDiameter=1.17699}
! Header version: 2024
! Port assignment regex: !\s*Touchstone port\s*([0-9]+)\s*=\s*(CST MWS port|CST DES external port|CST DES block port)\s*(.+)\s* \(\"(.*)\"\)(\s*mode\s*([0-9]+))?.*
! Touchstone port assignment:
! Touchstone port 1 = CST MWS port 1 ("Input1")
! Touchstone port 2 = CST MWS port 2 ("Input2")
# GHz S MA R 50
4.6                    0.1875575       -161.9717        0.6445996        66.59295        0.6445998        66.59299        0.1875578       -161.9719
4.6014                 0.1943052       -162.3749        0.6456189        65.65261        0.6456191        65.65263        0.1943055       -162.3751
4.6028                 0.2012615       -162.7821        0.6465321        64.70669        0.6465324        64.70672        0.2012617       -162.7823
4.6042                 0.2084433       -163.2011        0.6473342        63.75508        0.6473346        63.75511        0.2084436       -163.2013
4.6056                 0.2158635       -163.6393        0.6480193        62.79771        0.6480197        62.79773        0.2158637       -163.6395
4.607                  0.2235302       -164.1038        0.6485807        61.83458        0.6485811        61.83461        0.2235304       -164.1039
4.6084                 0.2314466       -164.6009        0.6490112        60.86581        0.6490116        60.86583        0.2314467       -164.6011
4.6098                 0.2396111       -165.1362        0.6493033        59.89162        0.6493038        59.89164        0.2396112       -165.1364
4.6112                 0.2480173       -165.7144        0.6494496        58.91234        0.6494501        58.91234        0.2480174       -165.7145
4.6126                 0.2566541        -166.339        0.6494427        57.92842        0.6494432        57.92841        0.2566542       -166.3392
4.614                  0.2655062       -167.0129        0.6492756        56.94041        0.6492761        56.94041        0.2655064        -167.013
4.6154                 0.2745545       -167.7377         0.648942          55.949        0.6489425        55.94899        0.2745547       -167.7378
4.6168                 0.2837763       -168.5143        0.6484364        54.95497        0.6484368        54.95497        0.2837765       -168.5144
4.6182                 0.2931461       -169.3426        0.6477544        53.95922         0.647755         53.9592        0.2931464       -169.3427
4.6196                 0.3026363       -170.2219        0.6468931         52.9627        0.6468936        52.96268        0.3026365       -170.2221
4.621                   0.312217       -171.1509        0.6458508        51.96648        0.6458511        51.96645        0.3122172        -171.151
4.6224                 0.3218576       -172.1275        0.6446273        50.97164        0.6446277        50.97162        0.3218578       -172.1276
4.6238                 0.3315263       -173.1493        0.6432245        49.97935        0.6432249        49.97932        0.3315265       -173.1493
4.6252                 0.3411916       -174.2134        0.6416458        48.99077        0.6416461        48.99074        0.3411918       -174.2135
4.6266                 0.3508218       -175.3169        0.6398964        48.00707        0.6398967        48.00704         0.350822        -175.317
4.628                  0.3603862       -176.4563        0.6379835         47.0294        0.6379837        47.02937        0.3603864       -176.4564
4.6294                  0.369855       -177.6283         0.635916        46.05887        0.6359162        46.05884        0.3698552       -177.6283
4.6308                 0.3791999       -178.8292        0.6337044        45.09653        0.6337046        45.09649        0.3792002       -178.8293
4.6322                 0.3883945        179.9443         0.631361        44.14331        0.6313612        44.14328        0.3883947        179.9443
4.6336                  0.397414         178.696        0.6288993        43.20008        0.6288995        43.20004        0.3974143        178.6959
4.635                  0.4062363        177.4292        0.6263343        42.26755        0.6263344        42.26751        0.4062366        177.4291
4.6364                 0.4148414        176.1473        0.6236818        41.34628        0.6236818        41.34624        0.4148417        176.1473
4.6378                 0.4232121        174.8537        0.6209583        40.43667        0.6209584        40.43663        0.4232123        174.8537
4.6392                 0.4313335        173.5515         0.618181        39.53893        0.6181811        39.53889        0.4313337        173.5514
4.6406                 0.4391936        172.2436        0.6153674        38.65307        0.6153674        38.65305        0.4391939        172.2435
4.642                  0.4467834        170.9328        0.6125343        37.77893        0.6125343         37.7789        0.4467836        170.9328
4.6434                  0.454096        169.6219        0.6096987        36.91607        0.6096986        36.91604        0.4540963        169.6218
4.6448                 0.4611276         168.313        0.6068761         36.0639        0.6068762        36.06388        0.4611279         168.313
4.6462                 0.4678768        167.0085         0.604082         35.2216        0.6040818        35.22158        0.4678771        167.0085
4.6476                 0.4743446        165.7104        0.6013291        34.38815        0.6013291        34.38812        0.4743448        165.7103
4.649                  0.4805341        164.4203        0.5986295        33.56232        0.5986295         33.5623        0.4805343        164.4203
4.6504                 0.4864506        163.1398         0.595993        32.74276         0.595993        32.74274        0.4864508        163.1398
4.6518                 0.4921012        161.8702        0.5934271        31.92794        0.5934272        31.92791        0.4921014        161.8701
4.6532                 0.4974944        160.6125        0.5909373        31.11622        0.5909372        31.11621        0.4974946        160.6124
4.6546                 0.5026402        159.3674         0.588526        30.30592         0.588526        30.30589        0.5026403        159.3674
4.656                  0.5075492        158.1357        0.5861938        29.49524        0.5861938        29.49521        0.5075494        158.1356
4.6574                 0.5122332        156.9176        0.5839383        28.68241        0.5839383        28.68239        0.5122334        156.9175
4.6588                  0.516704        155.7132        0.5817547         27.8657        0.5817548        27.86567        0.5167042        155.7132
4.6602                 0.5209737        154.5225        0.5796359         27.0434         0.579636        27.04338        0.5209739        154.5225
4.6616                 0.5250541        153.3453        0.5775723        26.21394        0.5775724        26.21392        0.5250543        153.3453
4.663                  0.5289564        152.1811        0.5755525        25.37586        0.5755526        25.37584        0.5289565        152.1811
4.6644                 0.5326912        151.0293        0.5735631        24.52787        0.5735631        24.52785        0.5326913        151.0293
4.6658                 0.5362682        149.8892        0.5715892        23.66888        0.5715893        23.66885        0.5362683        149.8892
4.6672                 0.5396957        148.7601        0.5696149        22.79798        0.5696149        22.79796        0.5396958        148.7601
4.6686                 0.5429809         147.641        0.5676232        21.91453        0.5676232         21.9145        0.5429809         147.641
4.67                   0.5461293         146.531        0.5655967        21.01811        0.5655967        21.01808        0.5461293         146.531
4.6714                 0.5491449        145.4291        0.5635179        20.10854         0.563518         20.1085        0.5491451        145.4291
4.6728                 0.5520304        144.3345        0.5613696         19.1859        0.5613696        19.18586        0.5520306        144.3345
4.6742                 0.5547868        143.2462        0.5591349         18.2505         0.559135        18.25046        0.5547869        143.2462
4.6756                 0.5574135        142.1633        0.5567982         17.3029        0.5567982        17.30286        0.5574136        142.1633
4.677                  0.5599086         141.085        0.5543447        16.34389        0.5543446        16.34385        0.5599088         141.085
4.6784                 0.5622689        140.0107        0.5517614        15.37444        0.5517613         15.3744        0.5622691        140.0107
4.6798                 0.5644901        138.9397        0.5490368        14.39573        0.5490367        14.39569        0.5644903        138.9397
4.6812                 0.5665672        137.8717        0.5461616        13.40911        0.5461615        13.40907        0.5665675        137.8717
4.6826                 0.5684944        136.8063        0.5431285        12.41606        0.5431284        12.41602        0.5684946        136.8064
4.684                  0.5702654        135.7435        0.5399324        11.41819        0.5399322        11.41815        0.5702656        135.7435
4.6854                  0.571874         134.683        0.5365705        10.41721        0.5365703        10.41717        0.5718742         134.683
4.6868                 0.5733139        133.6252        0.5330426        9.414871        0.5330424        9.414836        0.5733142        133.6252
4.6882                 0.5745791        132.5702        0.5293507        8.412989        0.5293504        8.412957        0.5745795        132.5702
4.6896                 0.5756645        131.5185         0.525499        7.413371        0.5254987         7.41334        0.5756648        131.5185
4.691                  0.5765654        130.4705        0.5214944        6.417805        0.5214941        6.417776        0.5765658        130.4705
4.6924                 0.5772787         129.427        0.5173454        5.428029        0.5173452        5.428003         0.577279         129.427
4.6938                 0.5778018        128.3886         0.513063          4.4457        0.5130627        4.445677        0.5778023        128.3886
4.6952                 0.5781342        127.3562        0.5086598        3.472362        0.5086594        3.472342        0.5781346        127.3562
4.6966                 0.5782764        126.3305        0.5041495        2.509423        0.5041492        2.509406         0.578277        126.3305
4.698                   0.578231        125.3125        0.4995479        1.558121        0.4995476        1.558107        0.5782314        125.3125
4.6994                 0.5780015        124.3031        0.4948713       0.6195034        0.4948709       0.6194929        0.5780019        124.3031
4.7008                 0.5775936         123.303        0.4901368      -0.3055993        0.4901364      -0.3056064        0.5775942        123.3031
4.7022                 0.5770145        122.3132        0.4853619       -1.216592        0.4853615       -1.216596        0.5770151        122.3133
4.7036                 0.5762729        121.3344        0.4805642       -2.113136        0.4805638       -2.113137        0.5762734        121.3345
4.705                  0.5753787        120.3673         0.475761       -2.995152        0.4757607       -2.995152        0.5753792        120.3673
4.7064                 0.5743434        119.4124        0.4709689       -3.862863        0.4709686       -3.862837        0.5743439        119.4124
4.7078                  0.573179        118.4702        0.4662036       -4.716695        0.4662033       -4.716695        0.5731795        118.4702
4.7092                 0.5718989        117.5409        0.4614795        -5.55743        0.4614792        -5.55743        0.5718994        117.5409
4.7106                 0.5705166        116.6246        0.4568095       -6.386086        0.4568092       -6.386073        0.5705171        116.6246
4.712                  0.5690462        115.7214        0.4522046       -7.203879        0.4522044       -7.203863        0.5690466        115.7214
4.7134                 0.5675014        114.8308        0.4476738        -8.01228        0.4476736       -8.012264        0.5675019        114.8308
4.7148                 0.5658958        113.9526        0.4432239       -8.812938        0.4432238        -8.81292        0.5658962        113.9526
4.7162                 0.5642421        113.0861        0.4388595       -9.607642        0.4388594       -9.607625        0.5642425        113.0861
4.7176                 0.5625523        112.2305        0.4345828       -10.39829        0.4345827       -10.39827        0.5625527        112.2305
4.719                  0.5608371        111.3848        0.4303935       -11.18684        0.4303933       -11.18682        0.5608374        111.3848
4.7204                 0.5591054        110.5479        0.4262891       -11.97524         0.426289       -11.97522        0.5591057        110.5479
4.7218                 0.5573649        109.7186        0.4222651       -12.76542        0.4222651        -12.7654        0.5573652        109.7186
4.7232                 0.5556207        108.8955        0.4183149       -13.55922        0.4183148        -13.5592         0.555621        108.8955
4.7246                 0.5538765        108.0771        0.4144299       -14.35833        0.4144299       -14.35831        0.5538766        108.0771
4.726                  0.5521333        107.2621        0.4106005       -15.16427        0.4106004       -15.16425        0.5521335        107.2621
4.7274                 0.5503905        106.4489        0.4068154       -15.97835        0.4068154       -15.97833        0.5503906        106.4489
4.7288                 0.5486447        105.6361        0.4030627       -16.80163        0.4030627       -16.80161        0.5486449        105.6361
4.7302                 0.5468911        104.8222        0.3993301        -17.6349        0.3993301       -17.63489        0.5468912        104.8222
4.7316                 0.5451224        104.0061        0.3956048       -18.47867        0.3956048       -18.47865        0.5451225        104.0061
4.733                  0.5433298        103.1865        0.3918744       -19.33314        0.3918744       -19.33313        0.5433299        103.1865
4.7344                 0.5415032        102.3623        0.3881269       -20.19823        0.3881269       -20.19822        0.5415033        102.3624
4.7358                 0.5396309        101.5329        0.3843511       -21.07355        0.3843511       -21.07354         0.539631        101.5329
4.7372                 0.5377004        100.6975         0.380537       -21.95842         0.380537       -21.95842        0.5377005        100.6975
4.7386                 0.5356987        99.85567        0.3766758       -22.85193        0.3766758       -22.85193        0.5356987        99.85567
4.74                   0.5336125        99.00731        0.3727605       -23.75289        0.3727605       -23.75289        0.5336125        99.00734
4.7414                 0.5314283        98.15246        0.3687855       -24.65991        0.3687855       -24.65991        0.5314284        98.15249
4.7428                 0.5291336        97.29133        0.3647474       -25.57142        0.3647474       -25.57141        0.5291336        97.29136
4.7442                 0.5267159        96.42444        0.3606448       -26.48569        0.3606448       -26.48568         0.526716        96.42447
4.7456                 0.5241647        95.55254         0.356478        -27.4009         0.356478       -27.40089        0.5241648        95.55256
4.747                    0.52147         94.6765        0.3522499       -28.31514        0.3522498       -28.31513        0.5214702        94.67653
4.7484                 0.5186241        93.79743        0.3479647       -29.22652        0.3479646       -29.22651        0.5186243        93.79749
4.7498                 0.5156207        92.91664        0.3436289       -30.13313        0.3436289       -30.13312        0.5156209        92.91666
4.7512                 0.5124558        92.03541         0.339251       -31.03317         0.339251       -31.03316        0.5124559        92.03546
4.7526                 0.5091273        91.15538        0.3348406       -31.92495        0.3348406       -31.92494        0.5091275        91.15541
4.754                  0.5056357        90.27804        0.3304093       -32.80696        0.3304092       -32.80694        0.5056359        90.27807
4.7554                 0.5019836          89.405        0.3259691       -33.67792        0.3259691        -33.6779        0.5019838        89.40506
4.7568                 0.4981758        88.53793        0.3215337       -34.53681        0.3215336       -34.53679        0.4981759        88.53795
4.7582                 0.4942194        87.67842        0.3171168       -35.38294        0.3171168       -35.38291        0.4942196        87.67845
4.7596                 0.4901236        86.82797        0.3127327       -36.21597        0.3127327       -36.21595        0.4901238        86.82802
4.761                  0.4858994        85.98806        0.3083955       -37.03596        0.3083955       -37.03594        0.4858996        85.98808
4.7624                 0.4815595        85.15989         0.304119       -37.84342         0.304119       -37.84338        0.4815599        85.15995
4.7638                 0.4771183        84.34468         0.299916       -38.63925         0.299916       -38.63922        0.4771185        84.34471
4.7652                 0.4725907        83.54326        0.2957986       -39.42483        0.2957986        -39.4248         0.472591        83.54331
4.7666                 0.4679929        82.75629        0.2917771         -40.202        0.2917771       -40.20198        0.4679932        82.75632
4.768                  0.4633411        81.98419        0.2878604       -40.97303        0.2878605         -40.973        0.4633414        81.98421
4.7694                 0.4586516        81.22703        0.2840555       -41.74056        0.2840556       -41.74053        0.4586519        81.22705
4.7708                 0.4539402        80.48462        0.2803672       -42.50762        0.2803673       -42.50759        0.4539405        80.48465
4.7722                  0.449222        79.75643         0.276798       -43.27755        0.2767981       -43.27752        0.4492222        79.75645
4.7736                 0.4445105        79.04164        0.2733482       -44.05389        0.2733483       -44.05386        0.4445108        79.04169
4.775                  0.4398177        78.33911        0.2700157       -44.84038        0.2700158       -44.84035         0.439818        78.33914
4.7764                 0.4351538        77.64745        0.2667961       -45.64083        0.2667962       -45.64079        0.4351541        77.64748
4.7778                 0.4305263         76.9649        0.2636828       -46.45904         0.263683       -46.45901        0.4305266        76.96493
4.7792                 0.4259404        76.28968        0.2606675       -47.29873        0.2606676       -47.29871        0.4259407         76.2897
4.7806                 0.4213984        75.61958        0.2577398       -48.16349          0.25774       -48.16346        0.4213987        75.61961
4.782                  0.4168999        74.95254         0.254888       -49.05663        0.2548881        -49.0566        0.4169001        74.95256
4.7834                 0.4124413        74.28625        0.2520992       -49.98119        0.2520993       -49.98118        0.4124415        74.28625
4.7848                 0.4080165        73.61845        0.2493595        -50.9399        0.2493597       -50.93988        0.4080167        73.61847
4.7862                 0.4036163        72.94705        0.2466549       -51.93507         0.246655       -51.93506        0.4036164        72.94708
4.7876                 0.3992292           72.27        0.2439709       -52.96862         0.243971       -52.96861        0.3992294        72.27002
4.789                  0.3948415         71.5855        0.2412933       -54.04207        0.2412934       -54.04206        0.3948417        71.58551
4.7904                 0.3904375        70.89201        0.2386085       -55.15653        0.2386086       -55.15652        0.3904376        70.89204
4.7918                 0.3859999        70.18838        0.2359036       -56.31273        0.2359037       -56.31272            0.386         70.1884
4.7932                 0.3815105        69.47378        0.2331669       -57.51102         0.233167       -57.51101        0.3815105        69.47379
4.7946                 0.3769503        68.74784        0.2303878       -58.75144        0.2303879       -58.75141        0.3769504        68.74786
4.796                  0.3723005        68.01067        0.2275574       -60.03369        0.2275575       -60.03368        0.3723005        68.01068
4.7974                 0.3675424        67.26286        0.2246682       -61.35731        0.2246683       -61.35729        0.3675424        67.26286
4.7988                 0.3626585        66.50551        0.2217148       -62.72158        0.2217149       -62.72155        0.3626584        66.50552
4.8002                 0.3576324        65.74028        0.2186932       -64.12568        0.2186933       -64.12567        0.3576324        65.74029
4.8016                 0.3524499        64.96936        0.2156015       -65.56873        0.2156017        -65.5687        0.3524498        64.96938
4.803                  0.3470988        64.19547        0.2124396        -67.0498        0.2124397       -67.04977        0.3470987        64.19549
4.8044                 0.3415697        63.42188         0.209209       -68.56802        0.2092091         -68.568        0.3415696         63.4219
4.8058                 0.3358564        62.65239        0.2059129       -70.12269        0.2059131       -70.12266        0.3358562        62.65242
4.8072                 0.3299557        61.89128        0.2025564       -71.71319        0.2025565       -71.71316        0.3299556        61.89132
4.8086                 0.3238686        61.14339        0.1991456       -73.33922        0.1991457       -73.33918        0.3238684        61.14342
4.81                   0.3175993        60.41398        0.1956882       -75.00073        0.1956883       -75.00069        0.3175991        60.41401
4.8114                 0.3111563        59.70875        0.1921927       -76.69809        0.1921928       -76.69806        0.3111561        59.70878
4.8128                 0.3045521        59.03382        0.1886688       -78.43205         0.188669       -78.43202        0.3045519        59.03386
4.8142                 0.2978033        58.39567        0.1851268       -80.20389        0.1851269       -80.20386        0.2978031        58.39571
4.8156                 0.2909307        57.80105        0.1815774       -82.01541        0.1815775       -82.01535        0.2909304        57.80109
4.817                  0.2839587        57.25691        0.1780317       -83.86898        0.1780318       -83.86895        0.2839585        57.25696
4.8184                 0.2769157        56.77037        0.1745007       -85.76766        0.1745009       -85.76762        0.2769155        56.77041
4.8198                 0.2698337        56.34844        0.1709957       -87.71513        0.1709959       -87.71509        0.2698335        56.34849
4.8212                 0.2627478        55.99804        0.1675275       -89.71578        0.1675276       -89.71576        0.2627475         55.9981
4.8226                 0.2556955        55.72571        0.1641064       -91.77472        0.1641066       -91.77468        0.2556953        55.72577
4.824                  0.2487169        55.53738        0.1607426       -93.89773        0.1607428       -93.89769        0.2487166        55.53744
4.8254                 0.2418532        55.43817        0.1574454       -96.09127        0.1574456       -96.09123        0.2418529        55.43824
4.8268                 0.2351465        55.43204        0.1542239       -98.36247        0.1542241       -98.36241        0.2351462        55.43212
4.8282                 0.2286383         55.5215        0.1510864        -100.719        0.1510866        -100.719         0.228638        55.52159
4.8296                 0.2223689         55.7073         0.148041       -103.1691        0.1480412       -103.1691        0.2223686        55.70739
4.831                  0.2163759        55.98806        0.1450953       -105.7214        0.1450955       -105.7213        0.2163756        55.98815
4.8324                 0.2106931        56.36008        0.1422569       -108.3847        0.1422571       -108.3847        0.2106928        56.36018
4.8338                  0.205349        56.81709        0.1395334       -111.1681        0.1395336       -111.1681        0.2053487        56.81719
4.8352                 0.2003655        57.35025        0.1369328       -114.0806         0.136933       -114.0806        0.2003652        57.35036
4.8366                 0.1957571        57.94818        0.1344634        -117.131        0.1344636       -117.1309        0.1957568        57.94831
4.838                  0.1915293        58.59731        0.1321346       -120.3274        0.1321348       -120.3273        0.1915289        58.59745
4.8394                 0.1876784        59.28227        0.1299566       -123.6773        0.1299568       -123.6773        0.1876781        59.28241
4.8408                 0.1841912        59.98653        0.1279409       -127.1874        0.1279411       -127.1873        0.1841909        59.98669
4.8422                 0.1810448        60.69318        0.1261002       -130.8626        0.1261004       -130.8625        0.1810445        60.69334
4.8436                 0.1782074         61.3857        0.1244488       -134.7063         0.124449       -134.7062        0.1782071        61.38586
4.845                  0.1756392        62.04878         0.123002       -138.7197        0.1230022       -138.7197        0.1756389        62.04895
4.8464                 0.1732938        62.66907        0.1217766       -142.9019        0.1217768       -142.9019        0.1732936        62.66925
4.8478                   0.17112        63.23576        0.1207898       -147.2489          0.12079       -147.2489        0.1711197        63.23594
4.8492                 0.1690628        63.74099        0.1200594       -151.7539        0.1200596       -151.7539        0.1690625        63.74119
4.8506                 0.1670661        64.18023        0.1196027        -156.407        0.1196029        -156.407        0.1670659        64.18044
4.852                   0.165074        64.55233        0.1194361       -161.1951        0.1194363       -161.1951        0.1650738        64.55253
4.8534                 0.1630323        64.85947        0.1195743       -166.1025        0.1195745       -166.1025        0.1630322        64.85969
4.8548                 0.1608902        65.10725        0.1200292       -171.1107        0.1200293       -171.1107        0.1608901        65.10746
4.8562                 0.1586015         65.3044        0.1208094       -176.1994        0.1208095       -176.1994        0.1586013        65.30463
4.8576                 0.1561256        65.46285        0.1219194         178.653        0.1219195         178.653        0.1561255        65.46307
4.859                  0.1534286         65.5975        0.1233592        173.4683        0.1233593        173.4684        0.1534285        65.59774
4.8604                 0.1504842        65.72637        0.1251239        168.2684         0.125124        168.2684        0.1504841        65.72663
4.8618                 0.1472743        65.87061        0.1272036        163.0736        0.1272037        163.0736        0.1472743        65.87085
4.8632                 0.1437901        66.05464        0.1295836        157.9026        0.1295837        157.9026          0.14379        66.05491
4.8646                 0.1400325        66.30662        0.1322446        152.7719        0.1322447         152.772        0.1400324        66.30688
4.866                  0.1360134        66.65858        0.1351632        147.6955        0.1351633        147.6955        0.1360134        66.65887
4.8674                 0.1317569        67.14706        0.1383126        142.6846        0.1383126        142.6846        0.1317569        67.14734
4.8688                 0.1273003        67.81332        0.1416628        137.7478        0.1416628        137.7478        0.1273003        67.81361
4.8702                 0.1226959        68.70367        0.1451819        132.8915        0.1451819        132.8915         0.122696        68.70399
4.8716                 0.1180132        69.86919        0.1488361        128.1196        0.1488361        128.1196        0.1180132        69.86951