! TOUCHSTONE file generated by CST MICROWAVE STUDIO
! Date and time: Fri Nov 29 14:48:26 2024
! Project name: dual_circularly_polarized_waveguide_antenna.cst
! Parameters = {airCoaxOuterDiameter=3; chamferAngle=45; chamferWidth=24; connectorLength=10; drillingHoleDiameter=4.1; feedLength=90; flareDiameter=130; flareLength=70; gratingDistance=0; gratingGap=1.90274; outletLength=60; polarizerLength=134; probe1Diameter=1.3; probe1Distance=14.068; probe1Length=12.1932; probe2Diameter=1.3; probe2Distance=0; probe2Length=11.967; smaInnerDiameter=1.3; smaOuterDiameter=4.1; transitionCoefficient=1.33; waveguideFeedLength=30; waveguideSide=50; waveguideThickness=3; wireCount=25; wireDiameter=1.17699}
! Header version: 2018
! Port assignment regex: !\s*Touchstone port\s*([0-9]+)\s*=\s*(CST MWS port|CST DS port)\s*([0-9]+|Zmin|Zmax)\s*\(\"(.*)\"\)(\s*mode\s*([0-9]+))?.*
! Touchstone port assignment:
! Touchstone port 1 = CST MWS port 1 ("Input1")
! Touchstone port 2 = CST MWS port 2 ("Input2")
# GHz S MA R 50
4.5                    0.5783748        126.3622        0.4232501       -6.644639        0.4232535       -6.642868        0.5970359        128.1592
4.502                  0.5699113        124.8737        0.4150136       -10.14485        0.4150236       -10.14354        0.5904562        126.7993
4.504                  0.5590433        123.8501        0.4065722       -14.21032         0.406586       -14.20993        0.5815544        125.8598
4.506                  0.5482671        123.5024        0.3957522       -18.91634        0.3957657       -18.91705        0.5727061        125.5258
4.508                   0.541355        123.8595        0.3804637       -24.16028        0.3804728       -24.16198        0.5674547        125.8139
4.51                   0.5418899        124.6645         0.359486       -29.67587        0.3594879       -29.67819         0.569117        126.4882
4.512                  0.5515008        125.4287        0.3329211        -35.0766        0.3329152       -35.07892        0.5791658        127.1165
4.514                   0.568967        125.6592        0.3022401       -39.90332         0.302228       -39.90491        0.5964407        127.2678
4.516                  0.5908436        125.0838        0.2699857       -43.68179         0.269971       -43.68188        0.6177371         126.703
4.518                  0.6130164         123.706        0.2392208       -46.02175        0.2392085       -46.01984         0.639231        125.4236
4.52                   0.6321056        121.7156        0.2127789        -46.7848        0.2127736       -46.78115        0.6577788        123.5968
4.522                  0.6461727        119.3695        0.1924215       -46.25923        0.1924254       -46.25511        0.6715838         121.452
4.524                  0.6547707        116.9065        0.1782507       -45.13777        0.1782621       -45.13508        0.6802435        119.2034
4.526                  0.6585806        114.5035         0.168874       -44.18008        0.1688878       -44.18017        0.6844014        117.0093
4.528                  0.6588748        112.2612        0.1623173       -43.83237        0.1623279       -43.83529        0.6852375        114.9597
4.53                   0.6570012        110.2117        0.1569733        -44.1495        0.1569768       -44.15409         0.683992        113.0834
4.532                   0.654029        108.3383        0.1519879       -44.97455        0.1519835       -44.97905        0.6816502        111.3667
4.534                  0.6506085        106.6007        0.1471155        -46.1368        0.1471053       -46.13955        0.6788261        109.7755
4.536                  0.6470093        104.9566        0.1423786       -47.54452        0.1423663       -47.54451        0.6757972        108.2728
4.538                  0.6432466        103.3738         0.137806       -49.17745         0.137796       -49.17466        0.6726068        106.8292
4.54                   0.6392185        101.8356        0.1333523        -51.0354        0.1333477       -51.03072         0.669173        105.4273
4.542                  0.6348166        100.3388        0.1289489       -53.10018        0.1289507       -53.09509        0.6653843        104.0622
4.544                  0.6300036        98.89026        0.1245767       -55.33638        0.1245842       -55.33243        0.6611808        102.7393
4.546                  0.6248534        97.50007        0.1202793        -57.7173          0.12029       -57.71574         0.656612        101.4688
4.548                  0.6195411        96.17342        0.1161128         -60.245        0.1161234       -60.24637        0.6518418        100.2574
4.55                   0.6142758        94.90444        0.1120879       -62.94321        0.1120953       -62.94718        0.6470872         99.1013
4.552                  0.6091998        93.67558        0.1081586       -65.82785        0.1081607       -65.83337        0.6425081        97.98436
4.554                  0.6043068        92.46409        0.1042686       -68.88109        0.1042649       -68.88653        0.6381128        96.88429
4.556                  0.5994403        91.25344        0.1004156       -72.05228        0.1004072       -72.05589         0.633745        95.78412
4.558                  0.5943829        90.04239       0.09667996       -75.28868       0.09666936        -75.2892        0.6291758        94.68195
4.56                   0.5889929         88.8455       0.09319067       -78.57588       0.09318111       -78.57282        0.6242502        93.59195
4.562                  0.5833023        87.68362        0.0900498        -81.9565       0.09004429       -81.95047        0.6189943        92.53494
4.564                  0.5775073        86.56958       0.08726695       -85.50788       0.08726728       -85.50055        0.6136105        91.52414
4.566                  0.5718496        85.49811       0.08475355       -89.28814       0.08475975        -89.2818        0.6083524        90.55475
4.568                  0.5664592        84.44715       0.08238383       -93.28875       0.08239406       -93.28539        0.6033591        89.60541
4.57                   0.5612651        83.39102       0.08008162       -97.42701       0.08009284       -97.42789        0.5985594        88.65101
4.572                  0.5560365         82.3168        0.0778767       -101.5862       0.07788551       -101.5913        0.5937144        87.67906
4.574                  0.5505343        81.23298       0.07589483       -105.6795       0.07589859       -105.6873        0.5885763        86.69799
4.576                  0.5446713        80.16415       0.07428576       -109.7006       0.07428338       -109.7088        0.5830565        85.73171
4.578                  0.5385758        79.13449       0.07313016       -113.7246        0.0731225       -113.7306        0.5772892        84.80344
4.58                   0.5325101        78.15085       0.07238439         -117.85       0.07237391       -117.8519        0.5715455        83.91942
4.582                   0.526697        77.19688       0.07190131       -122.1197       0.07189121       -122.1169        0.5660524        83.06351
4.584                  0.5211688        76.24273       0.07151495       -126.4757       0.07150822       -126.4691        0.5608371        82.20719
4.586                  0.5157427        75.26478       0.07113547       -130.7789       0.07113397       -130.7706        0.5557076         81.3285
4.588                  0.5101434        74.26154       0.07079818       -134.8783       0.07080221       -134.8706        0.5503821        80.42704
4.59                   0.5041894        73.25496       0.07063824       -138.6911        0.0706465       -138.6863        0.5446818        79.52445
4.592                  0.4979162        72.27565       0.07080161       -142.2484       0.07081157       -142.2478        0.5386532        78.64972
4.594                  0.4915543          71.342       0.07134194       -145.6705       0.07135062       -145.6742         0.532539        77.81922
4.596                  0.4853739         70.4466       0.07217082       -149.0816       0.07217566       -149.0882        0.5266129         77.0246
4.598                  0.4795004        69.56018       0.07309868       -152.5212       0.07309832       -152.5287        0.5209918         76.2375
4.6                    0.4738274        68.65065       0.07394152       -155.9158       0.07393612       -155.9219         0.515554        75.42831
4.602                  0.4680879        67.70499       0.07462519       -159.1224       0.07461633       -159.1253        0.5100213        74.58643
4.604                  0.4620346        66.73804       0.07522433       -162.0142        0.0752147       -162.0131        0.5041476        73.72756
4.606                  0.4556062        65.78254       0.07591031        -164.559       0.07590287       -164.5542        0.4978853        72.88312
4.608                   0.448966        64.86678       0.07683402       -166.8423       0.07683124       -166.8351        0.4914151        72.07862
4.61                   0.4423883        63.99456       0.07801603       -169.0126       0.07801886       -169.0056        0.4850201        71.31568
4.612                  0.4360673        63.14127        0.0793214       -171.1821       0.07932898       -171.1775        0.4788878        70.56979
4.614                  0.4299796        62.26969       0.08054101       -173.3523       0.08055083       -173.3514        0.4729775        69.80635
4.616                  0.4238957        61.35516       0.08152394       -175.4164       0.08153269       -175.4195        0.4670437        69.00426
4.618                  0.4175314        60.40235       0.08227392       -177.2293       0.08227851       -177.2353        0.4607993        68.17041
4.62                   0.4107346        59.44234       0.08294879       -178.6994       0.08294753       -178.7061        0.4541049        67.33512
4.622                  0.4035784        58.51153       0.08375962       -179.8485        0.0837529       -179.8533        0.4470535        66.53155
4.624                  0.3963006        57.62665       0.08482983        179.2025        0.0848201        179.2013        0.4398956        65.77299
4.626                  0.3891288        56.77236       0.08611211        178.3199       0.08610304        178.3227        0.4328554          65.043
4.628                  0.3821107        55.91089       0.08742801         177.455       0.08742304        177.4607        0.4259616         64.3064
4.63                   0.3750649        55.00806        0.0886048        176.6796       0.08860578        176.6861        0.4190137        63.53393
4.632                  0.3676882        54.05788       0.08961476        176.1385       0.08962133        176.1433        0.4117024        62.72382
4.634                  0.3597412        53.08899       0.09062456        175.9541        0.0906342        175.9556        0.4038018        61.90521
4.636                  0.3511852        52.14851       0.09191984        176.1415       0.09192877        176.1392        0.3952989        61.12141
4.638                  0.3421806         51.2745       0.09375016        176.5924       0.09375495        176.5874        0.3863754        60.40445
4.64                   0.3329491        50.47513       0.09620295        177.1457       0.09620186        177.1403        0.3772559        59.75794
4.642                  0.3235936        49.72989       0.09920583        177.6934       0.09919954        177.6897        0.3680265        59.16118
4.644                  0.3140022        49.01441        0.1026594        178.2324        0.1026507        178.2318        0.3585531        58.59356
4.646                  0.3039072        48.33399        0.1065989        178.8242        0.1065913        178.8265          0.34856        58.06407
4.648                  0.2930639        47.74458        0.1112609        179.4968        0.1112576        179.5009        0.3378216        57.62649
4.65                   0.2814379         47.3481        0.1170004       -179.8336        0.1170025       -179.8295         0.326344        57.37053
4.652                  0.2692895          47.265        0.1241027       -179.3604        0.1241093       -179.3579         0.314429        57.39415
4.654                  0.2571142        47.59912        0.1326198       -179.3021        0.1326281       -179.3018        0.3025908        57.77253
4.656                  0.2454916        48.41342        0.1423398       -179.8036        0.1423467       -179.8053        0.2913902        58.54094
4.658                  0.2349476        49.72762        0.1528912        179.1032        0.1528943        179.1005        0.2813045        59.69914
4.66                   0.2259223        51.53116         0.163885        177.4719        0.1638836        177.4692        0.2727159        61.22744
4.662                  0.2188393        53.78665        0.1749984         175.386        0.1749933        175.3843        0.2659996        63.09124
4.664                  0.2141674        56.40316        0.1859677        172.9206        0.1859608        172.9202        0.2615903        65.21897
4.666                   0.212344        59.19386        0.1965261        170.1327        0.1965199        170.1335         0.259904        67.46828
4.668                  0.2135447        61.87326        0.2063541        167.0765        0.2063504         167.078        0.2611112        69.62258
4.67                   0.2174573        64.13284        0.2150907        163.8227        0.2150906        163.8244        0.2649201         71.4459
4.672                  0.2232717        65.75809        0.2224133         160.468        0.2224166        160.4693        0.2705617        72.77027
4.674                  0.2299323         66.6991        0.2281448        157.1277        0.2281501        157.1284        0.2770259        73.55155
4.676                  0.2364949        67.05213        0.2323281         153.914        0.2323338        153.9138        0.2834052        73.86097
4.678                  0.2423841         66.9841        0.2352214        150.9088        0.2352259         150.908        0.2891487        73.82837
4.68                   0.2474431        66.65251        0.2372028        148.1453        0.2372049        148.1441        0.2941115        73.57792
4.682                  0.2517915         66.1561         0.238625        145.6061        0.2386242        145.6049        0.2984116        73.18646
4.684                  0.2555968        65.52842        0.2396933        143.2446        0.2396902        143.2437        0.3022005        72.67831
4.686                  0.2588964         64.7673        0.2404376        141.0173        0.2404332         141.017        0.3054924        72.05038
4.688                  0.2615676        63.87651        0.2407893        138.9107         0.240785        138.9109         0.308145        71.30775
4.69                   0.2634403        62.89216         0.240711        136.9435         0.240708        136.9442        0.3099814        70.48459
4.692                  0.2644558        61.87878        0.2402916        135.1477        0.2402907        135.1487        0.3109522        69.63861
4.694                  0.2647556        60.90086        0.2397442        133.5385        0.2397456        133.5395        0.3112152        68.82512
4.696                  0.2646339        59.99031        0.2393087        132.0949        0.2393121        132.0956         0.311075        68.06905
4.698                  0.2643851        59.13184        0.2391229        130.7641        0.2391272        130.7642        0.3108211        67.35426
4.7                    0.2641458         58.2775        0.2391526        129.4891        0.2391567        129.4887        0.3105711        66.63833
4.702                  0.2638405        57.38187        0.2392331          128.24        0.2392356        128.2391        0.3102294        65.88433
4.704                  0.2632698        56.43434        0.2391941        127.0274        0.2391942        127.0262        0.3095881        65.08713
4.706                  0.2622757        55.46577        0.2389843         125.889        0.2389817         125.888        0.3084993        64.27687
4.708                  0.2608723        54.52721        0.2387125        124.8588        0.2387081        124.8583        0.3069987        63.49808
4.71                   0.2592545        53.65427        0.2385785        123.9391        0.2385737        123.9393        0.3052992         62.7787
4.712                  0.2576798        52.84198        0.2387392        123.0944        0.2387357        123.0952        0.3036601        62.11021
4.714                  0.2563058        52.04669        0.2392029        122.2724        0.2392021        122.2736        0.3022216        61.45235
4.716                  0.2550935        51.21476        0.2398258        121.4366        0.2398279        121.4377        0.3009204        60.76009
4.718                  0.2538462         50.3187         0.240413        120.5889        0.2404173        120.5894        0.2995457        60.01403
4.72                   0.2523551        49.37456         0.240854        119.7642        0.2408588        119.7641         0.297894        59.23249
4.722                  0.2505479        48.42942        0.2411977        119.0044        0.2412012        119.0036        0.2959152        58.45771
4.724                  0.2485423        47.52802        0.2416186        118.3269        0.2416194        118.3258        0.2937503        57.72575
4.726                  0.2465684        46.68107        0.2422956        117.7107        0.2422934        117.7096        0.2916366        57.04081
4.728                  0.2448137        45.85596        0.2432875        117.1094        0.2432832        117.1089        0.2897467         56.3708
4.73                   0.2432975         44.9979        0.2444927        116.4823        0.2444879        116.4824        0.2880718         55.6686
4.732                  0.2418613        44.06669        0.2457212        115.8209        0.2457174        115.8216        0.2864316         54.9041
4.734                  0.2402816        43.06335        0.2468271        115.1529        0.2468256        115.1539        0.2846024        54.08392
4.736                   0.238425        42.02797        0.2478095         114.521        0.2478108         114.522        0.2824719        53.24604
4.738                  0.2363377         41.0114        0.2488129         113.952        0.2488163        113.9526        0.2801157        52.43272
4.74                   0.2342136         40.0396        0.2500266        113.4375        0.2500308        113.4375        0.2777434        51.66074
4.742                  0.2322616        39.09456        0.2515533        112.9383        0.2515568        112.9378        0.2755543         50.9086
4.744                  0.2305631        38.12493         0.253338        112.4117        0.2533397        112.4109         0.273599        50.13012
4.746                  0.2290178        37.08032        0.2552082        111.8398        0.2552075        111.8389        0.2717459        49.28567
4.748                  0.2274145        35.94488        0.2569948        111.2405        0.2569919        111.2399        0.2697724        48.36876
4.75                   0.2255762        34.74677        0.2586496        110.6531        0.2586455        110.6529        0.2675181        47.40947
4.752                  0.2234782         33.5378        0.2602783        110.1102        0.2602744        110.1105        0.2649911        46.45319
4.754                  0.2212625        32.35748        0.2620667        109.6142        0.2620644         109.615        0.2623598        45.52885
4.756                  0.2191397        31.20507        0.2641519        109.1356        0.2641521        109.1365        0.2598352        44.62816
4.758                  0.2172456        30.03836        0.2665278        108.6328        0.2665304        108.6335        0.2575251        43.70989
4.76                   0.2155496        28.80113         0.269051        108.0806        0.2690552         108.081        0.2553597        42.72722
4.762                  0.2138775        27.46047        0.2715431        107.4867        0.2715474        107.4864        0.2531406        41.65915
4.764                  0.2120317        26.02776        0.2739149        106.8835        0.2739178        106.8828        0.2506763        40.52379
4.766                  0.2099233        24.54944        0.2762277        106.3054        0.2762281        106.3045        0.2479098        39.36496
4.768                  0.2076294        23.07464        0.2786496        105.7635        0.2786474        105.7627         0.244953        38.22169
4.77                   0.2053397        21.62095        0.2813387        105.2382        0.2813348        105.2378         0.242008        37.10056
4.772                  0.2032281        20.16066        0.2843332        104.6922        0.2843292        104.6924         0.239227        35.96954
4.774                  0.2013364        18.63748         0.287526        104.0966        0.2875233        104.0973        0.2366078        34.77825
4.776                  0.1995483        17.00305        0.2907411        103.4493        0.2907407        103.4502        0.2339961         33.4912
4.778                  0.1976703        15.24798        0.2938565        102.7751        0.2938586        102.7757        0.2311904        32.11064
4.78                   0.1955621        13.40616         0.296888        102.1065        0.2968917        102.1069        0.2280767        30.67364
4.782                  0.1932282        11.53056        0.2999767        101.4612        0.2999807        101.4611        0.2247019        29.22583
4.784                  0.1908139        9.656664        0.3032904        100.8289        0.3032933        100.8284        0.2212383        27.78927
4.786                   0.188509        7.776831        0.3069064        100.1785        0.3069072        100.1778        0.2178654        26.34522
4.788                  0.1864237        5.842647        0.3107575        99.47928        0.3107562        99.47866        0.2146479          24.844
4.79                   0.1845187        3.794737        0.3146793        98.72129        0.3146763         98.7209        0.2114922        23.23621
4.792                  0.1826356        1.600093        0.3185231        97.92035        0.3185195        97.92032        0.2082104        21.50384
4.794                  0.1806045      -0.7286002        0.3222564        97.10569        0.3222534        97.10602        0.2046454        19.67012
4.796                  0.1783568       -3.143808        0.3259823        96.29886        0.3259808        96.29944        0.2007729         17.7818
4.798                  0.1759688        -5.59607        0.3298654        95.49851        0.3298659        95.49911        0.1967137        15.87592
4.8                    0.1736138       -8.068203        0.3340155        94.68111        0.3340179        94.68157        0.1926523        13.95192
4.802                  0.1714525       -10.58934        0.3384099         93.8169        0.3384133        93.81704        0.1887139        11.96738
4.804                  0.1695338       -13.21897        0.3429065        92.88942        0.3429099         92.8892        0.1848838        9.861411
4.806                  0.1677703        -16.0107         0.347339        91.90525        0.3473411        91.90478        0.1810199        7.590667
4.808                  0.1660017       -18.98003        0.3516255         90.8878        0.3516256        90.88721         0.176949        5.153484
4.81                   0.1641031        -22.0972        0.3558178        89.85999        0.3558157        89.85951        0.1725807        2.586383
4.812                  0.1620673       -25.30851        0.3600581         88.8281        0.3600545        88.82788        0.1679653     -0.06422964
4.814                  0.1600116       -28.57186        0.3644741        87.77714        0.3644704        87.77728        0.1632607       -2.777568
4.816                  0.1581088       -31.88495        0.3690841        86.68086        0.3690815        86.68129        0.1586345       -5.579496
4.818                   0.156485       -35.28865        0.3737766        85.51888         0.373776        85.51947        0.1541624       -8.534989
4.82                    0.155149       -38.84237        0.3783775        84.28941        0.3783792        84.28995        0.1497892       -11.71549
4.822                  0.1539964       -42.58718         0.382758        83.00874        0.3827613        83.00904         0.145376       -15.16217
4.824                  0.1528839       -46.52062        0.3869076        81.69889        0.3869114        81.69886           0.1408       -18.86929
4.826                  0.1517238       -50.59857        0.3909257          80.372        0.3909287        80.37167        0.1360403       -22.79741
4.828                  0.1505411       -54.76165        0.3949373        79.02183        0.3949385        79.02131         0.131201       -26.90778
4.83                   0.1494616       -58.96927        0.3989907        77.62777        0.3989898        77.62727        0.1264611       -31.19748
4.832                  0.1486405       -63.22183        0.4030066        76.16845        0.4030038        76.16812        0.1219844       -35.71478
4.834                  0.1481731       -67.55736        0.4068114        74.63545        0.4068079        74.63539        0.1178462       -40.54335
4.836                  0.1480423       -72.02419        0.4102326        73.03804        0.4102295        73.03826        0.1140187       -45.76313
4.838                  0.1481333       -76.64691        0.4131886        71.39629         0.413187        71.39672        0.1104218       -51.41132
4.84                    0.148303       -81.40694        0.4157159        69.72753        0.4157162        69.72805        0.1070022       -57.46635
4.842                  0.1484632       -86.24916        0.4179152        68.03529        0.4179174         68.0357        0.1037926       -63.86187
4.844                  0.1486259       -91.10866        0.4198546        66.30755        0.4198582        66.30775        0.1009211       -70.51987
4.846                  0.1488897         -95.942        0.4214937        64.52579        0.4214975        64.52567       0.09856745       -77.38417
4.848                  0.1493734       -100.7455        0.4226798        62.67803        0.4226827        62.67764       0.09689387       -84.43526
4.85                   0.1501368         -105.55        0.4232183        60.76791        0.4232192        60.76738       0.09598267       -91.67708
4.852                  0.1511337        -110.395        0.4229687        58.81363        0.4229673        58.81311         0.095812       -99.10339
4.854                  0.1522258       -115.2982        0.4219042          56.838         0.421901        56.83767       0.09627744       -106.6649
4.856                  0.1532482       -120.2388        0.4200975        54.85625        0.4200934        54.85624       0.09724504       -114.2597
4.858                  0.1540879       -125.1641        0.4176425        52.86938        0.4176391        52.86969       0.09860795       -121.7525
4.86                   0.1547305       -130.0138        0.4145676        50.86707        0.4145661        50.86761        0.1003209       -129.0131
4.862                  0.1552496       -134.7483        0.4107942        48.83869        0.4107952        48.83929        0.1023967       -135.9545
4.864                   0.155745       -139.3654        0.4061721        46.78506        0.4061755        46.78547        0.1048663       -142.5543
4.866                  0.1562654       -143.8954        0.4005658        44.72333        0.4005703        44.72339        0.1077211       -148.8465
4.868                   0.156762       -148.3777        0.3939357        42.68219        0.3939398        42.68187        0.1108708        -154.889
4.87                   0.1571009       -152.8315        0.3863633        40.69026        0.3863655        40.68963        0.1141446       -160.7236
4.872                  0.1571295       -157.2397        0.3780034        38.76496        0.3780028        38.76424        0.1173402       -166.3512
4.874                  0.1567559       -161.5542        0.3689959        36.90895        0.3689927         36.9084        0.1202962       -171.7345
4.876                  0.1559963        -165.719        0.3593953        35.11703        0.3593907        35.11685        0.1229476       -176.8232
4.878                  0.1549609       -169.6986        0.3491638        33.38934        0.3491595        33.38962        0.1253331        178.4134
4.88                   0.1537873       -173.4963        0.3382343        31.74288        0.3382319        31.74353        0.1275479        173.9635
4.882                  0.1525576       -177.1491        0.3266002        30.21346        0.3266005        30.21425        0.1296658        169.7731
4.884                  0.1512522        179.2967        0.3143737        28.84659        0.3143766        28.84721        0.1316763         165.772
4.886                  0.1497681        175.8165        0.3017734        27.68238        0.3017777        27.68259        0.1334786        161.9092
4.888                  0.1479927        172.4248        0.2890471        26.74402        0.2890512         26.7437        0.1349355        158.1772