! TOUCHSTONE file generated by CST MICROWAVE STUDIO
! Date and time: Fri Nov 29 14:48:26 2024
! Project name: dual_circularly_polarized_waveguide_antenna.cst
! Parameters = {airCoaxOuterDiameter=3; chamferAngle=45; chamferWidth=24; connectorLength=10; drillingHoleDiameter=4.1; feedLength=75; flareDiameter=130; flareLength=70; gratingDistance=0; gratingGap=1.90274; outletLength=60; polarizerLength=134; probe1Diameter=1.3; probe1Distance=14.068; probe1Length=12.1932; probe2Diameter=1.3; probe2Distance=0; probe2Length=11.967; smaInnerDiameter=1.3; smaOuterDiameter=4.1; transitionCoefficient=1.33; waveguideFeedLength=30; waveguideSide=50; waveguideThickness=3; wireCount=25; wireDiameter=1.17699}
! Header version: 2018
! Port assignment regex: !\s*Touchstone port\s*([0-9]+)\s*=\s*(CST MWS port|CST DS port)\s*([0-9]+|Zmin|Zmax)\s*\(\"(.*)\"\)(\s*mode\s*([0-9]+))?.*
! Touchstone port assignment:
! Touchstone port 1 = CST MWS port 1 ("Input1")
! Touchstone port 2 = CST MWS port 2 ("Input2")
# GHz S MA R 50
4.5                    0.1050624       -142.7009        0.5739995        79.04629        0.5739989        79.04631       0.06677649       -179.6055
4.502                  0.1236053       -144.1476        0.5837244        77.27502        0.5837242        77.27508       0.08193916       -172.5664
4.504                  0.1426691        -145.914        0.5931529        75.43171        0.5931529        75.43177       0.09913928       -168.4658
4.506                   0.162034       -147.9141        0.6023072        73.50782        0.6023074        73.50787        0.1176182       -166.3111
4.508                  0.1815065       -150.0609         0.611089        71.49117        0.6110894        71.49121        0.1368342       -165.4161
4.51                   0.2009745       -152.2846        0.6192865         69.3756         0.619287        69.37562        0.1564449       -165.3285
4.512                  0.2204027        -154.545        0.6266518        67.16582        0.6266523        67.16582        0.1762754       -165.7658
4.514                  0.2397797       -156.8292         0.632991        64.87531        0.6329915        64.87531        0.1962492        -166.563
4.516                  0.2590592       -159.1386        0.6382096        62.51939          0.63821        62.51935        0.2163063        -167.628
4.518                  0.2781331        -161.473        0.6422906        60.10854        0.6422908        60.10848        0.2363475       -168.9031
4.52                   0.2968512       -163.8219        0.6452309        57.64601        0.6452307        57.64595        0.2562263        -170.341
4.522                  0.3150677       -166.1633        0.6469813        55.13003        0.6469807        55.13002        0.2757797        -171.893
4.524                  0.3326832       -168.4692        0.6474257         52.5583         0.647425        52.55831        0.2948721       -173.5081
4.526                  0.3496673       -170.7102        0.6463962        49.93118        0.6463957        49.93124        0.3134307       -175.1359
4.528                  0.3660688       -172.8587        0.6436929        47.25268        0.6436927        47.25278        0.3314769       -176.7287
4.53                    0.382041       -174.8892        0.6390823         44.5305        0.6390829        44.53058        0.3491651       -178.2447
4.532                  0.3978876       -176.7834        0.6322783        41.77889        0.6322792        41.77893        0.3668323        -179.655
4.534                  0.4141013       -178.5416        0.6229475        39.02612        0.6229485        39.02609        0.3850249        179.0414
4.536                  0.4313287        179.7993        0.6107929        36.32474        0.6107935        36.32465        0.4044404        177.8004
4.538                  0.4502091        178.1554        0.5957296        33.75897        0.5957293        33.75888         0.425739        176.5246
4.54                   0.4711019        176.4029        0.5781089        31.44159        0.5781079        31.44153         0.449252        175.0779
4.542                  0.4938157        174.4112        0.5588845        29.49418        0.5588833        29.49421        0.4747121        173.3246
4.544                  0.5174952         172.086        0.5395959        28.00932         0.539595        28.00943        0.5011611        171.1765
4.546                  0.5407593        169.4033        0.5220852        27.00303        0.5220852        27.00318        0.5271152        168.6231
4.548                  0.5620487        166.4158        0.5079754        26.38059        0.5079763         26.3807         0.550934        165.7344
4.55                   0.5800465         163.236        0.4981041        25.94602        0.4981054        25.94606        0.5712487        162.6381
4.552                  0.5940189        160.0048        0.4922137        25.46705        0.4922148        25.46698        0.5873041         159.487
4.554                  0.6039671        156.8571        0.4891064        24.76346        0.4891068        24.76333        0.5991077        156.4239
4.556                  0.6105476        153.8925        0.4871871        23.76454        0.4871866        23.76443        0.6073459        153.5528
4.558                  0.6147901        151.1569        0.4850869        22.50702        0.4850859        22.50698        0.6130953        150.9211
4.56                   0.6177162        148.6416        0.4820626        21.08809        0.4820616        21.08813        0.6174287        148.5187
4.562                   0.620017        146.3004        0.4780412        19.60714        0.4780405        19.60726        0.6210809         146.297
4.564                  0.6219317        144.0797        0.4733691        18.12389        0.4733691        18.12403        0.6243153        144.1988
4.566                  0.6233609        141.9439        0.4684441        16.64702        0.4684447        16.64713        0.6270369        142.1862
4.568                  0.6241212        139.8863        0.4634351        15.15284         0.463436        15.15289        0.6290544        140.2506
4.57                   0.6241778        137.9196         0.458223        13.61846        0.4582238        13.61846        0.6303224        138.4045
4.572                  0.6237233        136.0571        0.4525539        12.04731        0.4525544        12.04727        0.6310307        136.6614
4.574                  0.6230804         134.296        0.4462693         10.4721        0.4462696        10.47205        0.6315089        135.0191
4.576                  0.6225119        132.6139        0.4394524        8.936071        0.4394524        8.936026        0.6320325        133.4553
4.578                  0.6220722        130.9791        0.4323995        7.466663        0.4323994        7.466625        0.6326659        131.9379
4.58                   0.6215987        129.3676        0.4254489        6.059145        0.4254487        6.059114        0.6332492        130.4422
4.582                  0.6208428        127.7746         0.418784        4.681175        0.4187837        4.681156        0.6335289        128.9631
4.584                  0.6196479        126.2136        0.4123453        3.295472        0.4123449         3.29548        0.6333394        127.5137
4.586                  0.6180543        124.7038        0.4059034        1.885093         0.405903        1.885137         0.632716        126.1133
4.588                  0.6162698        123.2546        0.3992388       0.4640974        0.3992387       0.4641772        0.6318669        124.7717
4.59                   0.6145293         121.858        0.3923022      -0.9329945        0.3923024      -0.9328993        0.6310339        123.4815
4.592                  0.6129405        120.4921        0.3852522        -2.27531        0.3852527       -2.275233        0.6303328        122.2212
4.594                  0.6114216        119.1353        0.3783516       -3.557254        0.3783524       -3.557229        0.6296868        120.9694
4.596                  0.6097662        117.7787        0.3717955       -4.803227        0.3717962       -4.803265        0.6288883        119.7169
4.598                  0.6077891        116.4306        0.3655883       -6.051808        0.3655887       -6.051895        0.6277479        118.4716
4.6                    0.6054524        115.1091        0.3595523       -7.330024        0.3595524       -7.330123        0.6262229        117.2515
4.602                  0.6028885        113.8286        0.3534577       -8.635616        0.3534574       -8.635691        0.6244445        116.0708
4.604                  0.6003075        112.5893        0.3471816       -9.939415        0.3471812       -9.939446        0.6226266          114.93
4.606                  0.5978566         111.376        0.3407901       -11.20582        0.3407898       -11.20581        0.6209214        113.8148
4.608                  0.5955237        110.1684        0.3344908       -12.41768        0.3344906       -12.41765        0.6193209         112.705
4.61                   0.5931512        108.9535        0.3284912       -13.58904        0.3284911       -13.58901        0.6176686         111.588
4.612                  0.5905478        107.7337        0.3228602       -14.75663        0.3228603       -14.75661        0.6157708        110.4661
4.614                  0.5876183        106.5242        0.3174862        -15.9555        0.3174862       -15.95549        0.6135296        109.3538
4.616                  0.5844258        105.3417        0.3121578       -17.19553        0.3121578       -17.19551         0.611007        108.2676
4.618                  0.5811454        104.1926          0.30671       -18.45531        0.3067101       -18.45528        0.6083796        107.2136
4.62                   0.5779436        103.0681        0.3011342       -19.69725        0.3011345       -19.69724        0.6058172        106.1837
4.622                  0.5748664        101.9499        0.2955807       -20.89372         0.295581       -20.89375        0.6033684        105.1602
4.624                  0.5718105        100.8222         0.290254       -22.04675        0.2902543       -22.04683        0.6009308        104.1278
4.626                  0.5685971        99.68194        0.2852749       -23.18797         0.285275       -23.18811        0.5983245        103.0837
4.628                  0.5650939        98.53998        0.2806003       -24.35789        0.2806001         -24.358        0.5954157        102.0382
4.63                   0.5613023        97.41341         0.276057       -25.57872        0.2760566       -25.57878        0.5922059        101.0079
4.632                  0.5573532        96.31324        0.2714627       -26.83972        0.2714621       -26.83975        0.5888267        100.0032
4.634                  0.5534139        95.23663        0.2667493       -28.10541        0.2667488       -28.10533        0.5854475        99.02141
4.636                  0.5495731        94.16846        0.2620068       -29.33991        0.2620066       -29.33983        0.5821582        98.04813
4.638                  0.5457806        93.09134        0.2574207       -30.53278        0.2574207        -30.5327        0.5789084        97.06692
4.64                   0.5418824        91.99719        0.2531458       -31.70723         0.253146       -31.70721        0.5755432        96.07014
4.642                  0.5377249        90.89211        0.2492036       -32.90604        0.2492038       -32.90604        0.5719087        95.06383
4.644                  0.5332567        89.79199        0.2454718       -34.16307         0.245472       -34.16307        0.5679541        94.06311
4.646                  0.5285574        88.71117         0.241772       -35.48115        0.2417721       -35.48115        0.5637611        93.08151
4.648                  0.5237782         87.6525        0.2379926       -36.83136        0.2379926       -36.83135        0.5594824        92.12156
4.65                   0.5190343        86.60509         0.234164       -38.17386        0.2341642       -38.17386        0.5552334        91.17287
4.652                  0.5143224         85.5516        0.2304378        -39.4862         0.230438       -39.48623        0.5510099        90.21915
4.654                  0.5095212        84.47987        0.2269849       -40.78084         0.226985       -40.78092        0.5466886        89.24919
4.656                  0.5044704        83.39117        0.2238829       -42.09884        0.2238829       -42.09895        0.5421089        88.26456
4.658                  0.4990744         82.2991        0.2210688         -43.484        0.2210685       -43.48408        0.5371772        87.27825
4.66                   0.4933598         81.2205        0.2183873       -44.95495        0.2183869       -44.95497        0.5319229        86.30599
4.662                  0.4874473        80.16388        0.2157011       -46.49504        0.2157007       -46.49501        0.5264697        85.35545
4.664                  0.4814613        79.12385        0.2129851       -48.06635        0.2129849       -48.06627        0.5209421        84.42131
4.666                  0.4754362        78.08503         0.210345       -49.63804         0.210345       -49.63795        0.5153723        83.48911
4.668                  0.4692851        77.03286        0.2079486       -51.21055        0.2079489        -51.2105         0.509671        82.54561
4.67                   0.4628507        75.96441        0.2059181       -52.81928        0.2059184       -52.81928        0.5036801        81.58862
4.672                  0.4560017        74.89131        0.2042545       -54.51474        0.2042547       -54.51479        0.4972707        80.62942
4.674                  0.4487093        73.83332        0.2028451       -56.33294        0.2028451       -56.33302        0.4904191        79.68621
4.676                  0.4410511        72.80656        0.2015467       -58.27644        0.2015466       -58.27652        0.4832077        78.77351
4.678                  0.4331438        71.81497        0.2002854       -60.31901        0.2002853       -60.31908        0.4757549        77.89417
4.68                   0.4250486        70.85019        0.1991074       -62.42963        0.1991073        -62.4297        0.4681201        77.03999
4.682                  0.4167168        69.90128        0.1981499       -64.59982        0.1981497       -64.59989        0.4602512        76.20071
4.684                  0.4080118        68.96715        0.1975521       -66.85639        0.1975519       -66.85647        0.4520099        75.37573
4.686                  0.3987933        68.06431        0.1973674       -69.25136         0.197367       -69.25142        0.4432588        74.58021
4.688                  0.3890067        67.22428        0.1975307       -71.83574        0.1975302       -71.83577        0.4339502        73.84243
4.69                   0.3787198        66.48314        0.1979024       -74.63556        0.1979019       -74.63552        0.4241585        73.19323
4.692                  0.3680853        65.86982        0.1983542       -77.64564        0.1983538       -77.64554        0.4140389        72.65593
4.694                  0.3572589        65.40198        0.1988395       -80.84403        0.1988393        -80.8439        0.4037434        72.24311
4.696                  0.3463358        65.09282        0.1994035       -84.21599        0.1994036       -84.21585        0.3933583        71.96322
4.698                  0.3353551        64.96479        0.2001305       -87.77182        0.2001307       -87.77174        0.3829121        71.83277
4.7                     0.324379        65.06035        0.2010607       -91.54757         0.201061        -91.5476        0.3724562        71.88532
4.702                  0.3135987        65.43998         0.202131       -95.58814        0.2021312       -95.58822        0.3621691        72.16865
4.704                  0.3033976        66.16392        0.2031725       -99.92368        0.2031725       -99.92381        0.3524119        72.72877
4.706                  0.2943226        67.26365        0.2039646       -104.5536        0.2039643       -104.5538         0.343695        73.58705
4.708                  0.2869652        68.71648        0.2043112       -109.4461        0.2043107       -109.4462        0.3365612        74.72202
4.71                   0.2818113          70.438        0.2040959       -114.5507        0.2040952       -114.5508        0.3314478        76.06667
4.712                  0.2791327        72.29734        0.2032915       -119.8156        0.2032909       -119.8156        0.3285971        77.52229
4.714                  0.2789691        74.14692         0.201928       -125.1998        0.2019274       -125.1998         0.328051        78.98028
4.716                  0.2811775        75.84815        0.2000418       -130.6756        0.2000413       -130.6755        0.3297029        80.33839
4.718                  0.2854904        77.28453        0.1976409       -136.2198        0.1976405       -136.2197         0.333346        81.50718
4.72                   0.2915366        78.36589        0.1947035        -141.802        0.1947032       -141.8019        0.3386799         82.4114
4.722                  0.2988372        79.03371        0.1912122        -147.375        0.1912121       -147.3749        0.3452917        82.99521
4.724                  0.3068186        79.26841        0.1872003       -152.8756        0.1872003       -152.8755        0.3526574        83.23145
4.726                   0.314877        79.09365        0.1827821       -158.2351        0.1827824        -158.235         0.360201        83.12864
4.728                  0.3224795        78.56986         0.178148       -163.3966        0.1781483       -163.3966        0.3673971        82.72919
4.73                   0.3292583        77.77782         0.173519       -168.3305        0.1735193       -168.3306        0.3738719        82.09647
4.732                  0.3350498        76.79788        0.1690822       -173.0398        0.1690823       -173.0399        0.3794492        81.29654
4.734                  0.3398595        75.69289        0.1649383       -177.5509        0.1649381       -177.5511        0.3841202        80.38235
4.736                  0.3437748        74.50133        0.1610899        178.1074        0.1610894        178.1072        0.3879575         79.3866
4.738                  0.3468722        73.24189        0.1574792        173.9242        0.1574785        173.9241        0.3910232         78.3253
4.74                   0.3491697        71.92556        0.1540515        169.9143        0.1540507        169.9143        0.3933215        77.20845
4.742                  0.3506426        70.56741         0.150809        166.1081        0.1508084        166.1082         0.394816        76.05009
4.744                  0.3512819        69.19085        0.1478221        162.5288        0.1478217         162.529        0.3954899        74.87201
4.746                  0.3511488        67.82294        0.1451914        159.1726        0.1451913        159.1727        0.3954002        73.69923
4.748                  0.3503843        66.48429        0.1429851        156.0027        0.1429852        156.0028        0.3946859        72.55059
4.75                   0.3491639        65.18111          0.14119        152.9662        0.1411901        152.9663        0.3935204        71.43176
4.752                  0.3476274        63.90475        0.1397113        150.0215        0.1397114        150.0215        0.3920388        70.33517
4.754                  0.3458285        62.63992        0.1384224        147.1597        0.1384225        147.1597        0.3902891        69.24755
4.756                  0.3437391        61.37641        0.1372346        144.4052        0.1372346        144.4052        0.3882382        68.16061
4.758                  0.3413039        60.11654        0.1361418        141.7948        0.1361417        141.7947        0.3858292        67.07753
4.76                    0.338508        58.87382        0.1352134        139.3483        0.1352133        139.3482        0.3830502        66.01107
4.762                  0.3354139        57.66361        0.1345384        137.0504        0.1345382        137.0503        0.3799676        64.97499
4.764                  0.3321407        56.49232        0.1341564        134.8553        0.1341561        134.8552        0.3767032        63.97453
4.766                  0.3288034        55.35228        0.1340212        132.7121        0.1340208        132.7121          0.37337        63.00224
4.768                  0.3254519        54.22617        0.1340216         130.595        0.1340211         130.595        0.3700124        62.04265
4.77                   0.3220529        53.09792        0.1340457        128.5162        0.1340453        128.5163        0.3665914        61.08216
4.772                  0.3185264        51.96296        0.1340461         126.514        0.1340459        126.5142        0.3630251        60.11794
4.774                  0.3148121        50.83062        0.1340634         124.624        0.1340633        124.6241        0.3592567         59.1592
4.776                    0.31092          49.717        0.1341923        122.8525        0.1341925        122.8526        0.3553026        58.22043
4.778                  0.3069316        48.63325        0.1345129        121.1691        0.1345131        121.1692        0.3512495        57.31075
4.78                   0.3029512        47.57691         0.135031        119.5244        0.1350311        119.5243        0.3472016        56.42689
4.782                  0.2990416         46.5325         0.135669        117.8805         0.135669        117.8804        0.3432158        55.55455
4.784                  0.2951867        45.48104        0.1363136        116.2341        0.1363135        116.2341        0.3392679        54.67751
4.786                  0.2913082        44.41225        0.1368872        114.6157         0.136887        114.6157        0.3352754        53.78814
4.788                  0.2873239        43.33088        0.1373948        113.0664        0.1373946        113.0664        0.3311581        52.89215
4.79                   0.2832063        42.25277        0.1379172        111.6092         0.137917        111.6093        0.3268962        52.00414
4.792                   0.279004        41.19343        0.1385532        110.2316         0.138553        110.2316        0.3225461        51.13708
4.794                  0.2748099        40.15648        0.1393504        108.8927        0.1393501        108.8927        0.3182029        50.29269
4.796                  0.2706997         39.1302        0.1402706        107.5498        0.1402703        107.5499        0.3139369        49.45953
4.798                  0.2666822        38.09446        0.1412144        106.1858        0.1412142        106.1859        0.3097473        48.62009
4.8                    0.2626955        37.03377        0.1420872        104.8184         0.142087        104.8185        0.3055642        47.76241
4.802                  0.2586511        35.94719        0.1428606        103.4861        0.1428606        103.4863         0.301299        46.88791
4.804                  0.2544959        34.84843        0.1435903         102.221        0.1435904        102.2211         0.296906        46.00997
4.806                  0.2502479        33.75585        0.1443763        101.0258        0.1443765        101.0259        0.2924134        45.14441
4.808                  0.2459844        32.67903        0.1452943        99.87133        0.1452945        99.87133        0.2879038        44.29792
4.81                   0.2417882        31.61106         0.146343        98.71557        0.1463431        98.71551        0.2834565        43.46265
4.812                   0.237692        30.53197        0.1474453        97.53124        0.1474452        97.53119        0.2790927        42.62078
4.814                  0.2336555        29.42128        0.1485003        96.32291           0.1485         96.3229        0.2747611        41.75618
4.816                   0.229594        28.27116        0.1494519        95.12183        0.1494517        95.12189        0.2703727        40.86507
4.818                  0.2254349        27.09111        0.1503257        93.96337        0.1503256        93.96345        0.2658609        39.95836
4.82                   0.2211669        25.90078        0.1512112        92.86207        0.1512111        92.86218        0.2612262        39.05381
4.822                  0.2168447        24.71569        0.1522002        91.80117        0.1522002        91.80126        0.2565329        38.16341
4.824                  0.2125513        23.53543        0.1533246        90.74324        0.1533247        90.74331         0.251863        37.28434
4.826                  0.2083393        22.34229        0.1545352        89.65498        0.1545352        89.65505        0.2472582        36.40004
4.828                  0.2041948        21.11182        0.1557359        88.52855         0.155736        88.52861        0.2426896        35.49084
4.83                   0.2000462        19.82824        0.1568504        87.38478        0.1568504        87.38483         0.238076        34.54709
4.832                  0.1958114        18.49418        0.1578728         86.2571        0.1578729        86.25715        0.2333378        33.57558
4.834                  0.1914518        17.12791        0.1588717         85.1675        0.1588719         85.1675        0.2284488        32.59473
4.836                  0.1869951        15.74989        0.1599424        84.11044        0.1599426        84.11041        0.2234504        31.62178
4.838                  0.1825142        14.36737        0.1611416        83.05573        0.1611417        83.05568        0.2184192         30.6604
4.84                   0.1780742        12.96738        0.1624485        81.96801        0.1624485        81.96796        0.2134115        29.69729
4.842                  0.1736871        11.52319        0.1637791        80.82937         0.163779        80.82934        0.2084206        28.71066
4.844                  0.1693011        10.01049        0.1650434         79.6493        0.1650432        79.64932        0.2033791        27.68501
4.846                  0.1648336        8.422351        0.1662049        78.45575        0.1662048        78.45581        0.1982012         26.6221
4.848                  0.1602239        6.772674        0.1673035         77.2742        0.1673035        77.27428        0.1928381        25.54069
4.85                   0.1554706        5.085759        0.1684251        76.10883        0.1684252         76.1089        0.1873065        24.46465
4.852                  0.1506286        3.378484        0.1696411        74.93824        0.1696412        74.93826        0.1816734        23.40748
4.854                  0.1457691        1.646615        0.1709562         73.7285        0.1709563         73.7285        0.1760061         22.3635
4.856                  0.1409298      -0.1354473        0.1723028        72.45446        0.1723029        72.45444        0.1703237        21.31218
4.858                  0.1360882       -2.000521        0.1735827        71.11432        0.1735827        71.11431        0.1645811        20.23353
4.86                   0.1311749       -3.969018        0.1747286        69.72805        0.1747286        69.72805        0.1586985        19.12459
4.862                  0.1261189        -6.03693        0.1757421        68.32148        0.1757422        68.32148        0.1526139        18.00559
4.864                  0.1208923        -8.17961        0.1766848        66.90712        0.1766848        66.90712        0.1463241        16.91158
4.866                   0.115527       -10.36932        0.1776271         65.4743        0.1776271        65.47427        0.1398865        15.87445
4.868                  0.1100928       -12.59594        0.1785921        63.99502        0.1785921          63.995        0.1333811        14.90711
4.87                   0.1046517       -14.87781        0.1795298        62.44152        0.1795297        62.44151        0.1268586        14.00108
4.872                 0.09921971       -17.25482        0.1803403        60.80325        0.1803401        60.80328        0.1203108        13.14086
4.874                 0.09375976       -19.76705        0.1809288        59.09218        0.1809287        59.09222        0.1136835        12.32744
4.876                 0.08821096       -22.43204        0.1812554        57.33335        0.1812553        57.33342        0.1069239        11.59589
4.878                 0.08253331       -25.23596        0.1813461         55.5477        0.1813462        55.54777        0.1000305        11.01536
4.88                   0.0767393       -28.14499        0.1812611        53.73807        0.1812612        53.73812       0.09307168         10.6707
4.882                   0.070893       -31.13166        0.1810389        51.88774        0.1810391        51.88775       0.08616127        10.63689
4.884                 0.06507835       -34.20239        0.1806571        49.97193        0.1806572        49.97191       0.07940763        10.96415
4.886                 0.05935745        -37.4106        0.1800331        47.97503        0.1800332          47.975       0.07287117        11.68879
4.888                 0.05374523       -40.84655        0.1790656        45.90173        0.1790656        45.90172       0.06656312        12.87087