! TOUCHSTONE file generated by CST MICROWAVE STUDIO
! Date and time: Fri Nov 29 14:48:25 2024
! Project name: dual_circularly_polarized_waveguide_antenna.cst
! Parameters = {airCoaxOuterDiameter=3; chamferAngle=45; chamferWidth=24; connectorLength=10; drillingHoleDiameter=4.1; feedLength=60; flareDiameter=130; flareLength=70; gratingDistance=0; gratingGap=1.90274; outletLength=60; polarizerLength=134; probe1Diameter=1.3; probe1Distance=14.068; probe1Length=12.1932; probe2Diameter=1.3; probe2Distance=0; probe2Length=11.967; smaInnerDiameter=1.3; smaOuterDiameter=4.1; transitionCoefficient=1.33; waveguideFeedLength=30; waveguideSide=50; waveguideThickness=3; wireCount=25; wireDiameter=1.17699}
! Header version: 2018
! Port assignment regex: !\s*Touchstone port\s*([0-9]+)\s*=\s*(CST MWS port|CST DS port)\s*([0-9]+|Zmin|Zmax)\s*\(\"(.*)\"\)(\s*mode\s*([0-9]+))?.*
! Touchstone port assignment:
! Touchstone port 1 = CST MWS port 1 ("Input1")
! Touchstone port 2 = CST MWS port 2 ("Input2")
# GHz S MA R 50
4.5                    0.1138933        7.311243        0.5159781        102.9711        0.5159782        102.9711        0.1430813        41.24115
4.502                  0.1097601        5.208664        0.5162478        102.0622        0.5162477        102.0622        0.1379614        40.47432
4.504                  0.1052917        2.683284        0.5160056        101.2142        0.5160055        101.2141        0.1321582        39.58325
4.506                  0.1002954     -0.04120563        0.5158213        100.4465        0.5158208        100.4465        0.1257647        38.82011
4.508                  0.0950038       -2.703905        0.5161999        99.72444        0.5161993        99.72441        0.1192916        38.35688
4.51                  0.08992875       -5.180224        0.5172368        98.98305        0.5172363        98.98306        0.1133187        38.15094
4.512                 0.08554791       -7.596111        0.5185574        98.17256        0.5185571        98.17259        0.1080881        37.94342
4.514                 0.08201174       -10.28641        0.5195821        97.29183        0.5195822        97.29186        0.1033321        37.42719
4.516                  0.0790744       -13.58948        0.5199246         96.3877        0.5199248        96.38772       0.09847486        36.46472
4.518                  0.0762954       -17.63138        0.5196494        95.52221        0.5196495        95.52219       0.09304005        35.17991
4.52                  0.07334638       -22.26393        0.5192219        94.73037        0.5192217        94.73033       0.08696155        33.87394
4.522                 0.07021524       -27.16649        0.5191859        93.99631        0.5191854        93.99627       0.08061258        32.83168
4.524                 0.06721627       -32.02717        0.5197882        93.26406        0.5197875        93.26406       0.07455359        32.10894
4.526                 0.06482832        -36.7227        0.5208082         92.4764        0.5208076        92.47644        0.0691494        31.42255
4.528                 0.06344611       -41.40377        0.5217126        91.61413        0.5217123         91.6142       0.06431345        30.27208
4.53                  0.06317763       -46.39002        0.5220202        90.70804        0.5220203        90.70809       0.05958596        28.24301
4.532                 0.06381564       -51.91561        0.5216222        89.81681        0.5216226        89.81684        0.0544787        25.22928
4.534                 0.06499417       -57.93326        0.5208453         88.9871        0.5208455        88.98707       0.04880333        21.40898
4.536                 0.06641125       -64.11996        0.5202167        88.22169        0.5202166        88.22166       0.04277738        17.03204
4.538                 0.06799354       -70.03623        0.5200912        87.47755        0.5200908        87.47751        0.0368973        12.11439
4.54                  0.06994284       -75.32921        0.5203933        86.69584        0.5203927        86.69584       0.03169057        6.105034
4.542                 0.07264488       -79.89654        0.5206557        85.84317        0.5206553        85.84321       0.02752817       -2.277422
4.544                 0.07645977        -83.9261        0.5203243        84.93506        0.5203243        84.93513       0.02467979        -14.6426
4.546                 0.08149838        -87.7554        0.5191132        84.02604        0.5191134        84.02608       0.02355789       -31.61258
4.548                 0.08754493       -91.63692        0.5171707        83.17495         0.517171        83.17496       0.02468433       -51.17429
4.55                  0.09419599       -95.59736        0.5149475        82.40845        0.5149478        82.40844       0.02817212       -69.47179
4.552                  0.1011221       -99.47444        0.5128566         81.7075        0.5128566        81.70748       0.03355903       -84.06128
4.554                  0.1082879       -103.0642        0.5109562        81.02748         0.510956        81.02746       0.04032544       -94.75279
4.556                  0.1160009       -106.2756        0.5088899        80.34002        0.5088895        80.34002       0.04831822       -102.3882
4.558                  0.1247418       -109.2151        0.5061407        79.66766        0.5061405         79.6677        0.0577358       -108.0697
4.56                   0.1348462       -112.1484        0.5024483        79.08716        0.5024483         79.0872       0.06881973       -112.8582
4.562                  0.1462307        -115.356        0.4981269        78.69714        0.4981271        78.69716       0.08151651       -117.5375
4.564                  0.1583458       -118.9888         0.494086        78.56625        0.4940863        78.56625       0.09534761        -122.485
4.566                  0.1703751       -123.0174        0.4915172        78.68877        0.4915172        78.68875        0.1095356       -127.7268
4.568                  0.1815358       -127.2794        0.4914083        78.97497        0.4914082        78.97496        0.1232588       -133.0903
4.57                   0.1913193       -131.5633        0.4941629        79.28573        0.4941627        79.28573        0.1358859       -138.3459
4.572                  0.1995786       -135.6827        0.4995386         79.4899        0.4995385        79.48991        0.1470973       -143.2984
4.574                  0.2064589       -139.5174        0.5068973        79.50636        0.5068972        79.50637        0.1568676       -147.8301
4.576                  0.2122311       -143.0209        0.5155499        79.30849        0.5155501        79.30851        0.1653401        -151.905
4.578                  0.2171293       -146.1942        0.5249674        78.90106        0.5249676        78.90106        0.1726743         -155.54
4.58                   0.2212881       -149.0471        0.5347737        78.29501        0.5347738        78.29501         0.178963       -158.7595
4.582                  0.2248068       -151.5686         0.544615        77.49886        0.5446149        77.49884        0.1842691       -161.5594
4.584                  0.2278789       -153.7289        0.5540663        76.52687        0.5540662        76.52687        0.1887473       -163.9044
4.586                  0.2308711       -155.5108        0.5626784        75.41141        0.5626783        75.41141        0.1927447        -165.762
4.588                   0.234266       -156.9491         0.570141        74.20481         0.570141        74.20483        0.1967782       -167.1537
4.59                   0.2384754       -158.1452        0.5764389        72.96636         0.576439        72.96637        0.2013627       -168.1844
4.592                  0.2436409        -159.237        0.5818741        71.74068        0.5818741        71.74068        0.2067815       -169.0202
4.594                   0.249572       -160.3381        0.5869102        70.54084        0.5869102        70.54081        0.2129624       -169.8175
4.596                  0.2558837       -161.4907        0.5919205        69.34759        0.5919203        69.34756        0.2195675        -170.655
4.598                   0.262249        -162.663        0.5969925        68.12688        0.5969922        68.12688        0.2262434       -171.5162
4.6                    0.2685992       -163.7913        0.6019164        66.85479        0.6019161        66.85481        0.2328642       -172.3311
4.602                  0.2751475       -164.8355        0.6063639        65.53386        0.6063639        65.53388        0.2396102       -173.0438
4.604                  0.2822216       -165.8138        0.6101345        64.19077        0.6101346         64.1908        0.2468333       -173.6635
4.606                  0.2900175       -166.7947        0.6133069        62.85807         0.613307        62.85807        0.2548003       -174.2658
4.608                  0.2984426       -167.8537        0.6161967        61.55209        0.6161968        61.55207        0.2634911       -174.9456
4.61                   0.3071594       -169.0256        0.6191526        60.26189        0.6191524        60.26187        0.2725973       -175.7579
4.612                   0.315794       -170.2874         0.622325        58.95646        0.6223247        58.95646        0.2817196       -176.6884
4.614                  0.3241655       -171.5793        0.6255679        57.60523        0.6255676        57.60525        0.2906198       -177.6723
4.616                  0.3323817       -172.8467        0.6285371        56.19815         0.628537         56.1982        0.2993588        -178.642
4.618                  0.3407427       -174.0758        0.6309183        54.75151        0.6309182        54.75155        0.3082311       -179.5725
4.62                   0.3495169       -175.3003        0.6326289        53.29645        0.6326292        53.29647        0.3175417        179.5044
4.622                  0.3587389       -176.5768         0.633864        51.85821        0.6338643        51.85822        0.3273773        178.5253
4.624                  0.3681676       -177.9453        0.6349545         50.4397        0.6349546        50.43968        0.3375275        177.4393
4.626                  0.3774317       -179.4035        0.6361371        49.02005        0.6361369        49.02005        0.3476123        176.2419
4.628                  0.3862588        179.0892        0.6373888        47.56928        0.6373885        47.56929        0.3573189        174.9749
4.63                   0.3946332        177.5845        0.6384366        46.06888        0.6384364        46.06891        0.3665882        173.6969
4.632                  0.4027828        176.1122        0.6389361        44.52452        0.6389361        44.52455        0.3756291        172.4463
4.634                   0.411006        174.6635        0.6386934        42.96257        0.6386937         42.9626        0.3847543        171.2187
4.636                  0.4194522           173.2        0.6377871        41.41325        0.6377874        41.41327        0.3941485        169.9742
4.638                  0.4280051        171.6813        0.6365075         39.8916        0.6365078         39.8916        0.4037245        168.6669
4.64                   0.4363462         170.093        0.6351595        38.38853        0.6351597        38.38852         0.413167        167.2773
4.642                   0.444153        168.4564        0.6338573          36.878        0.6338573        36.87799        0.4221288        165.8252
4.644                  0.4512966        166.8136        0.6324497         35.3355        0.6324497         35.3355        0.4304451        164.3558
4.646                  0.4579097        165.2018        0.6306263        33.75535        0.6306263        33.75536        0.4382236        162.9112
4.648                  0.4642836        163.6304        0.6281274        32.15535        0.6281275        32.15537        0.4457552        161.5052
4.65                   0.4706623        162.0779          0.62492         30.5658        0.6249202        30.56581        0.4533045        160.1173
4.652                  0.4770705         160.508         0.621222        29.01051        0.6212224        29.01051        0.4609211        158.7091
4.654                  0.4832919        158.8957        0.6173628        27.49199         0.617363        27.49198        0.4683984        157.2522
4.656                  0.4890089        157.2444        0.6135703        25.99062        0.6135705        25.99061        0.4754072        155.7477
4.658                  0.4940097        155.5838        0.6098298         24.4786        0.6098298        24.47859        0.4817091        154.2256
4.66                   0.4983227        153.9505        0.6059065        22.93936        0.6059065        22.93936        0.4873078        152.7254
4.662                  0.5021929         152.366        0.6015159        21.37942        0.6015158        21.37944          0.49244        151.2716
4.664                  0.5059163        150.8235        0.5965246         19.8246        0.5965247         19.8246        0.4974121        149.8592
4.666                  0.5096436        149.2939        0.5910497        18.30354        0.5910498        18.30354        0.5023936        148.4591
4.668                  0.5132812         147.747        0.5853901        16.82909        0.5853902        16.82909        0.5073049         147.039
4.67                   0.5165599        146.1716        0.5798384        15.38993        0.5798385        15.38993        0.5118739        145.5859
4.672                  0.5192197        144.5834        0.5744982        13.95833        0.5744981        13.95831        0.5158238        144.1147
4.674                   0.521186        143.0144        0.5692282        12.50885        0.5692282        12.50885        0.5190598        142.6584
4.676                  0.5226223        141.4924        0.5637531        11.03579        0.5637531        11.03579        0.5217345        141.2464
4.678                  0.5238249        140.0228         0.557861        9.557177        0.5578611        9.557182        0.5241474        139.8861
4.68                   0.5250287        138.5859        0.5515557        8.102759        0.5515557         8.10276        0.5265485        138.5586
4.682                  0.5262574        137.1507        0.5450635        6.694067        0.5450635        6.694062        0.5289745        137.2319
4.684                  0.5273144        135.6955        0.5386905        5.329581        0.5386904        5.329574        0.5312327        135.8835
4.686                  0.5279241         134.223        0.5326265        3.985061        0.5326263        3.985059        0.5330384        134.5149
4.688                  0.5279229        132.7579        0.5268278        2.629366        0.5268276        2.629372        0.5342131        133.1505
4.69                   0.5273737        131.3301        0.5210582        1.245203        0.5210582        1.245218         0.534809        131.8213
4.692                  0.5265277        129.9552        0.5150579      -0.1594779        0.5150578       -0.159462        0.5350774        130.5439
4.694                  0.5256605         128.624        0.5087259       -1.557184        0.5087259       -1.557173        0.5353039        129.3099
4.696                  0.5248919        127.3084         0.502193       -2.919786        0.5021931       -2.919784        0.5356206        128.0916
4.698                  0.5241109        125.9806        0.4957388       -4.238211        0.4957388       -4.238213        0.5359226        126.8608
4.7                    0.5230577        124.6318        0.4896079       -5.529748        0.4896079       -5.529747        0.5359463        125.6078
4.702                   0.521504        123.2777        0.4838511       -6.827546        0.4838511       -6.827535        0.5354535        124.3479
4.704                  0.5194102        121.9477        0.4782971       -8.159002        0.4782971       -8.158981        0.5343952        123.1104
4.706                  0.5169535        120.6654        0.4726748       -9.527889        0.4726749       -9.527864        0.5329473        121.9192
4.708                  0.5144106        119.4324        0.4668002       -10.91256        0.4668004       -10.91254        0.5313932        120.7765
4.71                   0.5119731        118.2271        0.4607018       -12.28133        0.4607021       -12.28132        0.5299345        119.6613
4.712                  0.5096202        117.0193        0.4546022       -13.61484        0.4546024       -13.61484        0.5285568        118.5438
4.714                  0.5071363        115.7909        0.4487691        -14.9206        0.4487692       -14.92062        0.5270437        117.4055
4.716                  0.5042602        114.5478        0.4433367       -16.22975        0.4433366       -16.22975        0.5251269         116.252
4.718                  0.5008621        113.3166        0.4382178        -17.5774        0.4382178       -17.57739        0.5226701        115.1092
4.72                   0.4970305        112.1264        0.4331661        -18.9802        0.4331662       -18.98018        0.5197598        114.0058
4.722                  0.4930114          110.99        0.4279439       -20.42643        0.4279441       -20.42641        0.5166466        112.9543
4.724                  0.4890402         109.895        0.4224808       -21.88536        0.4224811       -21.88536         0.513574        111.9429
4.726                  0.4851822         108.813        0.4169176       -23.32951        0.4169179       -23.32952        0.5106127        110.9438
4.728                  0.4812889        107.7194        0.4115084       -24.75511        0.4115086       -24.75513        0.5076141        109.9326
4.73                   0.4771003        106.6111        0.4064477       -26.18716        0.4064477       -26.18718        0.5043132        108.9063
4.732                  0.4724224        105.5101        0.4017379       -27.66507        0.4017378       -27.66508        0.5005105        107.8857
4.734                  0.4672577        104.4496        0.3971866       -29.21838        0.3971866       -29.21837        0.4962071        106.9028
4.736                  0.4618025        103.4539        0.3925344       -30.84931        0.3925345       -30.84929        0.4916029        105.9805
4.738                  0.4563142         102.523         0.387622       -32.53396        0.3876222       -32.53395        0.4869611        105.1183
4.74                   0.4509382        101.6349        0.3824873       -34.24107        0.3824876       -34.24107        0.4824307        104.2946
4.742                  0.4456139        100.7629        0.3773285       -35.95582        0.3773287       -35.95585        0.4779498        103.4832
4.744                  0.4401251        99.89742          0.37236       -37.69329        0.3723602       -37.69332        0.4732967        102.6746
4.746                  0.4342608         99.0566        0.3676591       -39.49217        0.3676591        -39.4922        0.4682541        101.8855
4.748                  0.4279742        98.27819        0.3631022       -41.39265        0.3631021       -41.39267        0.4627719        101.1508
4.75                   0.4214347        97.59871        0.3584349       -43.41335        0.3584349       -43.41335        0.4570195        100.5038
4.752                  0.4149372        97.03294        0.3534228       -45.54283        0.3534229       -45.54282        0.4512926         99.9571
4.754                  0.4087326        96.56816        0.3479822         -47.751        0.3479824         -47.751        0.4458402        99.49724
4.756                  0.4028967        96.17753        0.3422071        -50.0123        0.3422074       -50.01231        0.4407306        99.09797
4.758                  0.3973313        95.84389         0.336278        -52.3258        0.3362782       -52.32582        0.4358537        98.74258
4.76                   0.3918977        95.57635        0.3303146       -54.71934        0.3303148       -54.71937        0.4310573        98.43915
4.762                  0.3865892        95.40724        0.3242703       -57.23429        0.3242703       -57.23432        0.4263218        98.21725
4.764                  0.3816194        95.36988        0.3179352       -59.90071        0.3179351       -59.90073        0.4218502        98.10769
4.766                  0.3773611        95.47188        0.3110452       -62.71896        0.3110453       -62.71895        0.4180066        98.11811
4.768                  0.3741741        95.68201        0.3034238       -65.65926        0.3034239       -65.65924        0.4151423        98.22155
4.77                   0.3722338        95.94079        0.2950671       -68.67872        0.2950673       -68.67872        0.4134266        98.36667
4.772                  0.3714819        96.18839        0.2861249        -71.7452        0.2861251       -71.74521        0.4127968        98.50238
4.774                   0.371725        96.38855        0.2767951       -74.85369        0.2767953       -74.85372        0.4130595        98.59958
4.776                  0.3728028        96.53198        0.2672005       -78.02533        0.2672006       -78.02537        0.4140593        98.65347
4.778                  0.3746946        96.61815        0.2573265       -81.28871        0.2573265       -81.28875        0.4157887        98.66722
4.78                   0.3774896        96.63191        0.2470578       -84.65497        0.2470578       -84.65498        0.4183584        98.62985
4.782                  0.3812458        96.53378        0.2362886       -88.10203        0.2362886       -88.10203        0.4218538        98.50722
4.784                  0.3858439        96.27264        0.2250338       -91.57877        0.2250338       -91.57877        0.4261843        98.25246
4.786                   0.390951        95.81097        0.2134725        -95.0271        0.2134726       -95.02712        0.4310395        97.82938
4.788                  0.3961222        95.14458        0.2018977       -98.41163        0.2018978       -98.41166        0.4359883        97.23144
4.79                   0.4009733        94.30338        0.1905985         -101.74        0.1905986         -101.74        0.4406534        96.48323
4.792                  0.4053123        93.33314        0.1797458        -105.061        0.1797459        -105.061        0.4448469        95.62473
4.794                  0.4091501        92.27225        0.1693474       -108.4376        0.1693474       -108.4376        0.4485853        94.68954
4.796                  0.4125942        91.13615        0.1593005       -111.9111        0.1593006       -111.9111        0.4519817        93.69027
4.798                  0.4157012        89.91907        0.1495057       -115.4776        0.1495058       -115.4777        0.4550946        92.61982
4.8                    0.4183862        88.60965        0.1399676       -119.0953        0.1399677       -119.0953        0.4578349        91.46608
4.802                  0.4204493        87.20937        0.1308225       -122.7183        0.1308226       -122.7183        0.4599927        90.22926
4.804                  0.4216938        85.74091        0.1222779        -126.341         0.122278        -126.341        0.4613604        88.92988
4.806                  0.4220533        84.24145        0.1145033       -130.0241        0.1145033       -130.0241        0.4618643        87.60243
4.808                  0.4216407        82.74566        0.1075398       -133.8818        0.1075399       -133.8818         0.461616        86.27912
4.81                   0.4206861        81.26931        0.1012884       -138.0311        0.1012885       -138.0311        0.4608465        84.97428
4.812                   0.419401        79.80413       0.09558303       -142.5333       0.09558312       -142.5333        0.4597664        83.67975
4.814                  0.4178601        78.32754        0.0902994       -147.3674       0.09029953       -147.3675        0.4584437        82.37432
4.816                  0.4159755          76.821       0.08543155       -152.4503       0.08543167       -152.4503        0.4567806        81.04109
4.818                  0.4135812        75.28487        0.0810957       -157.6909       0.08109577        -157.691        0.4546021        79.68121
4.82                   0.4105673        73.74009       0.07746564       -163.0476       0.07746565       -163.0477        0.4517958        78.31496
4.822                  0.4069749        72.21571        0.0746781        -168.552       0.07467804       -168.5521        0.4484062        76.96969
4.824                  0.4029875        70.73069       0.07276059       -174.2781       0.07276051       -174.2781        0.4446234        75.66261
4.826                  0.3988263        69.28186       0.07162114        179.7293       0.07162111        179.7293        0.4406711         74.3899
4.828                  0.3946196        67.84609       0.07110113        173.5161       0.07110117        173.5161        0.4366723         73.1297
4.83                   0.3903315        66.39599       0.07105654        167.2284       0.07105666        167.2284        0.4325805        71.85713
4.832                  0.3858024        64.91851       0.07142308        161.0644       0.07142323        161.0644        0.4282266        70.56147
4.834                  0.3808685        63.42398       0.07223491        155.1978       0.07223504        155.1977        0.4234449        69.25383
4.836                  0.3754831        61.93954       0.07358887        149.7106       0.07358889        149.7104        0.4181956        67.96009
4.838                  0.3697561        60.49119       0.07556861        144.5736       0.07556852        144.5735        0.4126001        66.70375
4.84                   0.3638885        59.08636       0.07816862        139.6866       0.07816847        139.6865        0.4068661        65.49026
4.842                  0.3580446        57.70836       0.08126554        134.9558        0.0812654        134.9559        0.4011545        64.30303
4.844                  0.3522489        56.32719       0.08466012        130.3558       0.08466006        130.3558        0.3954775        63.11456
4.846                  0.3463768        54.91987       0.08816702        125.9381       0.08816705        125.9382        0.3896972         61.9055
4.848                   0.340246        53.48646       0.09169982        121.7907       0.09169994        121.7908        0.3836271        60.67842
4.85                    0.333745        52.05089       0.09530173        117.9761       0.09530183        117.9761        0.3771634        59.45702
4.852                  0.3269125        50.64574       0.09910084        114.4851       0.09910089         114.485        0.3703607        58.27103
4.854                  0.3199157        49.29105        0.1032125        111.2336        0.1032124        111.2335        0.3633993        57.13682
4.856                  0.3129423         47.9807         0.107647        108.1053        0.1076469        108.1053        0.3564674        56.04643
4.858                  0.3060785        46.68627        0.1122848        105.0139        0.1122846        105.0139        0.3496382        54.97315
4.86                   0.2992563        45.37662         0.116937        101.9419        0.1169368         101.942        0.3428262        53.89043
4.862                  0.2923056        44.04029        0.1214517        98.93596        0.1214516        98.93601        0.3358515        52.79153
4.864                  0.2850749        42.69528         0.125798        96.06396        0.1257981        96.06402        0.3285695        51.69613
4.866                   0.277539         41.3793        0.1300754        93.36537        0.1300755        93.36537        0.3209748        50.63927
4.868                  0.2698212        40.12651        0.1344407        90.82106        0.1344407        90.82104        0.3132115        49.64952
4.87                   0.2621159        38.94574        0.1389977        88.36159        0.1389976        88.36155        0.3054817        48.73077
4.872                   0.254564        37.81485        0.1437195         85.9075        0.1437194        85.90748        0.2979154        47.86033
4.874                  0.2471639        36.69669         0.148457        83.41479        0.1484569        83.41479        0.2904892         47.0058
4.876                  0.2397813        35.56686        0.1530274         80.8951        0.1530272        80.89515        0.2830525        46.15006
4.878                  0.2322495        34.43429        0.1573232        78.40057        0.1573231        78.40063        0.2754413        45.30663
4.88                   0.2244918        33.34019         0.161373        75.98585         0.161373        75.98588        0.2676017        44.51478
4.882                  0.2165835        32.33508        0.1653144        73.67132        0.1653144        73.67133        0.2596387        43.81661
4.884                  0.2087113        31.44835        0.1692972        71.42939        0.1692972         71.4294        0.2517564        43.23108
4.886                  0.2010576        30.67023        0.1733773        69.20166        0.1733772        69.20166        0.2441313        42.74257
4.888                  0.1936878         29.9603        0.1774727        66.93566        0.1774727        66.93567        0.2368036        42.31352