! TOUCHSTONE file generated by CST MICROWAVE STUDIO
! Date and time: Fri Nov 29 14:48:25 2024
! Project name: dual_circularly_polarized_waveguide_antenna.cst
! Parameters = {airCoaxOuterDiameter=3; chamferAngle=45; chamferWidth=24; connectorLength=10; drillingHoleDiameter=4.1; feedLength=45; flareDiameter=130; flareLength=70; gratingDistance=0; gratingGap=1.90274; outletLength=60; polarizerLength=134; probe1Diameter=1.3; probe1Distance=14.068; probe1Length=12.1932; probe2Diameter=1.3; probe2Distance=0; probe2Length=11.967; smaInnerDiameter=1.3; smaOuterDiameter=4.1; transitionCoefficient=1.33; waveguideFeedLength=30; waveguideSide=50; waveguideThickness=3; wireCount=25; wireDiameter=1.17699}
! Header version: 2018
! Port assignment regex: !\s*Touchstone port\s*([0-9]+)\s*=\s*(CST MWS port|CST DS port)\s*([0-9]+|Zmin|Zmax)\s*\(\"(.*)\"\)(\s*mode\s*([0-9]+))?.*
! Touchstone port assignment:
! Touchstone port 1 = CST MWS port 1 ("Input1")
! Touchstone port 2 = CST MWS port 2 ("Input2")
# GHz S MA R 50
4.5                    0.4128988        48.04805        0.3371551        143.3297        0.3371622        143.3314        0.4483677        58.79868
4.502                  0.4092685        47.23801        0.3402461        142.5742        0.3402565        142.5754        0.4445895        58.11881
4.504                  0.4060135         46.4017        0.3431593        141.7474        0.3431712        141.7479        0.4411811        57.41237
4.506                   0.402899         45.5018        0.3456394        140.8921        0.3456512        140.8919        0.4378813        56.64601
4.508                  0.3995815        44.53742        0.3477017        140.0667        0.3477117        140.0657        0.4343348        55.82225
4.51                   0.3958402        43.54409        0.3496155        139.3062        0.3496225        139.3048        0.4303318        54.97725
4.512                  0.3917205        42.56966        0.3517205        138.6003        0.3517236        138.5986        0.4259449        54.15628
4.514                  0.3875004        41.64232        0.3541954        137.9007        0.3541946         137.899        0.4214763        53.38324
4.516                   0.383503         40.7513        0.3569396        137.1549        0.3569353        137.1535        0.4172524        52.64418
4.518                  0.3798812        39.85337        0.3596437        136.3419        0.3596369        136.3409        0.4134041        51.89618
4.52                   0.3765187        38.90167        0.3620013        135.4847        0.3619927        135.4842        0.4097825        51.09628
4.522                  0.3731135        37.87703        0.3639112         134.634        0.3639021         134.634        0.4060643        50.23048
4.524                  0.3693837        36.80027        0.3655407        133.8338        0.3655323        133.8344        0.4019729         49.3227
4.526                  0.3652541        35.71779        0.3672089        133.0927        0.3672026        133.0938        0.3974625        48.41836
4.528                  0.3609033        34.67036        0.3691692        132.3791        0.3691661        132.3805        0.3927455        47.55363
4.53                    0.356643         33.6655        0.3714373        131.6428        0.3714379        131.6443        0.3881479        46.73062
4.532                  0.3527094        32.67138        0.3737824          130.85        0.3737867        130.8513        0.3838894        45.91495
4.534                  0.3491083         31.6373        0.3758852        130.0053        0.3758924        130.0063        0.3799375        45.05825
4.536                  0.3456156        30.52732        0.3775516        129.1477        0.3775606        129.1482        0.3760337        44.13048
4.538                  0.3419323         29.3437        0.3788378        128.3236        0.3788473        128.3236        0.3718716        43.13962
4.54                    0.337885        28.12439        0.3800071        127.5567         0.380016        127.5562        0.3673022        42.12543
4.542                  0.3335389        26.91703        0.3813474        126.8321        0.3813544        126.8312        0.3624303        41.13213
4.544                  0.3291518        25.74632        0.3829723        126.1076        0.3829769        126.1065        0.3575402        40.17779
4.546                  0.3250017        24.59592        0.3847427        125.3431        0.3847444        125.3418        0.3529023        39.24058
4.548                  0.3212008        23.41742        0.3863596        124.5279        0.3863584        124.5267          0.34859         38.2717
4.55                   0.3176232         22.1612        0.3875645        123.6881        0.3875604         123.687        0.3444307        37.22705
4.552                  0.3139913        20.80828        0.3883073        122.8687        0.3883011         122.868         0.340123         36.0958
4.554                  0.3100606        19.38113        0.3887731        122.1046        0.3887657        122.1042        0.3354366        34.90604
4.556                  0.3057774        17.92683        0.3892504        121.3979        0.3892431         121.398        0.3303594        33.70448
4.558                  0.3013074        16.48409        0.3899294        120.7187        0.3899233        120.7192        0.3250967         32.5235
4.56                   0.2969197        15.05493        0.3907679        120.0266        0.3907638        120.0274        0.3199249        31.35691
4.562                  0.2928019        13.59977        0.3915166         119.301        0.3915148        119.3018         0.314997        30.16063
4.564                  0.2889289        12.06007        0.3918859        118.5565        0.3918865        118.5574        0.3102302        28.87907
4.566                  0.2850717        10.39391        0.3917388        117.8362        0.3917413        117.8369        0.3053495        27.47953
4.568                  0.2809374        8.600136         0.391181        117.1856        0.3911848        117.1861        0.3000545        25.97115
4.57                    0.276342        6.715178        0.3904904        116.6269        0.3904949        116.6272        0.2941938        24.39594
4.572                  0.2713033        4.785671        0.3899349         116.149        0.3899396         116.149        0.2878314        22.79875
4.574                  0.2659941        2.834599        0.3896048        115.7217        0.3896092        115.7215        0.2811644        21.19539
4.576                  0.2605879       0.8426908        0.3893809        115.3245        0.3893849        115.3242         0.274346        19.56015
4.578                  0.2550962       -1.241337        0.3890692        114.9693        0.3890724        114.9689        0.2673307        17.84288
4.58                   0.2493042        -3.46575        0.3886155        114.7005         0.388618        114.6999        0.2598463        16.00743
4.582                   0.242851        -5.83671          0.38826        114.5702        0.3882617        114.5696        0.2515177        14.06844
4.584                  0.2354072       -8.298088        0.3885232        114.6024         0.388524        114.6018        0.2420674        12.10514
4.586                  0.2268465       -10.73987        0.3900187        114.7674        0.3900182        114.7666        0.2314805        10.24625
4.588                  0.2173249       -13.02879        0.3931929        114.9828        0.3931906        114.9821        0.2200496        8.634604
4.59                   0.2072349       -15.04625        0.3981457         115.144        0.3981413        115.1433        0.2082886        7.387405
4.592                  0.1970706        -16.7176        0.4046294        115.1623        0.4046229        115.1618        0.1967672        6.568557
4.594                  0.1872789       -18.02035        0.4122015        114.9887        0.4121935        114.9887         0.185959        6.184598
4.596                  0.1781755       -18.96955        0.4204084        114.6124        0.4204002        114.6128        0.1761764        6.202856
4.598                  0.1699569       -19.59411        0.4288865        114.0428        0.4288801        114.0437        0.1676092        6.573133
4.6                    0.1627744       -19.92697        0.4373486        113.2938        0.4373455         113.295           0.1604        7.229327
4.602                  0.1567861       -20.02158        0.4455123        112.3795        0.4455138        112.3808        0.1546683        8.066932
4.604                  0.1521278       -19.98078        0.4530609        111.3208         0.453067         111.322        0.1504426         8.92377
4.606                  0.1488121       -19.96334        0.4596862        110.1535        0.4596958        110.1543        0.1475565        9.601314
4.608                  0.1466431       -20.14414        0.4651938        108.9282        0.4652054        108.9284        0.1456174        9.930799
4.61                   0.1452369       -20.64586        0.4695982        107.6996        0.4696094        107.6992        0.1441082        9.840633
4.612                  0.1441558       -21.49119        0.4731292        106.5097        0.4731381        106.5087        0.1425739        9.374756
4.614                  0.1430793       -22.60948        0.4761317        105.3742        0.4761368        105.3729        0.1407774        8.651477
4.616                  0.1419077       -23.89034        0.4789026         104.282        0.4789033        104.2806        0.1387379        7.791077
4.618                  0.1407435       -25.25028        0.4815613         103.208        0.4815577        103.2067        0.1366359        6.852344
4.62                   0.1397671       -26.67558        0.4840339        102.1324        0.4840265        102.1313        0.1346454        5.811024
4.622                  0.1390846       -28.21793        0.4861567        101.0545        0.4861467        101.0538         0.132796        4.592014
4.624                  0.1386419       -29.94682        0.4878311        99.99279        0.4878198        99.99261        0.1309496        3.133664
4.626                  0.1382552       -31.89155        0.4891242        98.97142        0.4891132        98.97175        0.1288982        1.439181
4.628                  0.1377317       -34.01379        0.4902524         98.0031        0.4902434        98.00386        0.1265079       -0.418581
4.63                   0.1369943       -36.22533        0.4914581        97.07931        0.4914524        97.08042        0.1238121       -2.338688
4.632                  0.1361316       -38.43754        0.4928652        96.17512        0.4928635        96.17636        0.1209978        -4.25273
4.634                  0.1353448         -40.611        0.4944111        95.26476        0.4944136        95.26594         0.118294       -6.168063
4.636                   0.134824       -42.77539         0.495903        94.33791        0.4959093        94.33888        0.1158365       -8.164839
4.638                  0.1346335       -45.00503        0.4971599        93.40528        0.4971687        93.40588        0.1135937        -10.3446
4.64                   0.1346791       -47.36484        0.4981421         92.4899         0.498152        92.49007        0.1114054       -12.76378
4.642                  0.1347786       -49.86372        0.4989832        91.61058        0.4989927         91.6103        0.1091018       -15.39798
4.644                  0.1347863       -52.44606        0.4999034        90.76824        0.4999113         90.7676        0.1066238       -18.15913
4.646                  0.1346896       -55.02439        0.5010637        89.94483        0.5010689        89.94389        0.1040691       -20.95145
4.648                  0.1346207       -57.53093        0.5024593        89.11477        0.5024612        89.11371        0.1016398       -23.73341
4.65                   0.1347769       -59.95665        0.5039273        88.26212        0.5039256        88.26102       0.09952733       -26.54712
4.652                  0.1352987       -62.35365        0.5052612        87.39034        0.5052561        87.38941       0.09780422        -29.4948
4.654                   0.136184       -64.79714        0.5063531        86.51927        0.5063453         86.5186         0.096394       -32.67198
4.656                  0.1372938       -67.33274        0.5072673        85.67087        0.5072578        85.67058       0.09513568       -36.10414
4.658                  0.1384455       -69.94457         0.508196        84.85394        0.5081863        84.85404       0.09389729       -39.72824
4.66                   0.1395311       -72.56473        0.5093292        84.05785        0.5093207        84.05837       0.09266569       -43.42862
4.662                  0.1405854       -75.11444        0.5107257         83.2597        0.5107196        83.26055       0.09156134       -47.10173
4.664                  0.1417636       -77.55117        0.5122751        82.43968        0.5122722        82.44063       0.09077349       -50.71296
4.666                  0.1432424       -79.89263        0.5137764        81.59417        0.5137769        81.59518       0.09045348       -54.31124
4.668                  0.1451063       -82.20231        0.5150767        80.73769        0.5150805        80.73859       0.09063032       -57.98842
4.67                    0.147292         -84.545        0.5161759        79.89235        0.5161822        79.89303       0.09120083       -61.80882
4.672                  0.1496299       -86.94289        0.5172257        79.07238        0.5172336        79.07276       0.09199947       -65.75738
4.674                  0.1519526       -89.36177        0.5184265        78.27436         0.518435        78.27438       0.09290177       -69.74012
4.676                  0.1542005       -91.73371        0.5198909        77.47931        0.5198989        77.47898        0.0938987       -73.63202
4.678                  0.1564576       -94.00012         0.521568        76.66553        0.5215743        76.66493       0.09510098       -77.34167
4.68                   0.1588954       -96.14754        0.5232804        75.82322        0.5232843         75.8224       0.09667126       -80.85597
4.682                  0.1616605       -98.21469        0.5248475        74.96046        0.5248481        74.95951       0.09872184        -84.2382
4.684                  0.1647771       -100.2655        0.5262078        74.09707        0.5262053         74.0962        0.1012401       -87.57831
4.686                  0.1681297       -102.3465        0.5274606        73.25083        0.5274552        73.25009        0.1040907       -90.92875
4.688                  0.1715378       -104.4575         0.528796        72.42485        0.5287886        72.42444        0.1070939       -94.26941
4.69                   0.1748721       -106.5546        0.5303652        71.60564        0.5303568        71.60553        0.1101304       -97.52157
4.692                  0.1781358       -108.5807        0.5321766        70.77191        0.5321685        70.77216        0.1132085       -100.5974
4.694                  0.1814606       -110.5026         0.534092        69.90919        0.5340853         69.9097        0.1164528        -103.453
4.696                  0.1850181       -112.3326        0.5359224        69.01905        0.5359179        69.01979        0.1200206       -106.1145
4.698                   0.188906       -114.1194        0.5375564        68.11758        0.5375546         68.1184        0.1239952       -108.6605
4.7                     0.193081       -115.9162        0.5390356        67.22368        0.5390366         67.2245        0.1283246       -111.1716
4.702                  0.1973868       -117.7465        0.5405241        66.34613        0.5405278         66.3469         0.132849       -113.6827
4.704                  0.2016562       -119.5917        0.5421953        65.47738        0.5422011        65.47789        0.1373978       -116.1669
4.706                  0.2058188       -121.4063        0.5441133        64.59828        0.5441206        64.59858        0.1418937       -118.5609
4.708                  0.2099446       -123.1494        0.5461894        63.69141         0.546197        63.69138         0.146397       -120.8095
4.71                   0.2141957        -124.812        0.5482436        62.75208        0.5482505        62.75178        0.1510627       -122.9032
4.712                   0.218717       -126.4222        0.5501268        61.79113         0.550132        61.79058        0.1560355       -124.8853
4.714                  0.2235381       -128.0273        0.5518208        60.82675        0.5518236        60.82604        0.1613506       -126.8251
4.716                  0.2285525        -129.662        0.5534471        59.87169        0.5534471        59.87092        0.1669063       -128.7752
4.718                  0.2335876       -131.3283        0.5551814        58.92435        0.5551788        58.92367        0.1725281       -130.7421
4.72                    0.238518       -132.9969        0.5571316        57.96963        0.5571268        57.96911        0.1780803       -132.6893
4.722                  0.2433458       -134.6286        0.5592623        56.98894         0.559256        56.98861        0.1835505       -134.5657
4.724                   0.248196       -136.2014         0.561418        55.97252        0.5614111        55.97249         0.189055        -136.342
4.726                  0.2532314        -137.725        0.5634271        54.92556        0.5634204        54.92574        0.1947585       -138.0303
4.728                  0.2585411       -139.2342        0.5652149        53.86368        0.5652093        53.86415        0.2007622       -139.6771
4.73                   0.2640792        -140.766        0.5668498        52.80227         0.566846        52.80287        0.2070334       -141.3331
4.732                  0.2696937       -142.3363        0.5684917        51.74528        0.5684903        51.74601        0.2134251       -143.0227
4.734                  0.2752253       -143.9317        0.5702787         50.6827          0.57028        50.68344        0.2197716       -144.7322
4.736                  0.2806102       -145.5204        0.5722297        49.59692        0.5722335        49.59755        0.2259945       -146.4232
4.738                  0.2859174        -147.075        0.5742279        48.47441        0.5742336        48.47487        0.2321504       -148.0605
4.74                   0.2912979       -148.5905        0.5760969        47.31443        0.5761038        47.31465         0.238389       -149.6364
4.742                  0.2968793       -150.0877        0.5777147        46.12879        0.5777217        46.12876        0.2448493       -151.1752
4.744                  0.3026764        -151.599        0.5790896        44.93334        0.5790959        44.93307        0.2515623        -152.718
4.746                  0.3085765       -153.1477        0.5803468         43.7369        0.5803517        43.73644        0.2584267       -154.2957
4.748                   0.314411       -154.7334        0.5816364        42.53505        0.5816392        42.53447        0.2652723       -155.9113
4.75                   0.3200618       -156.3344        0.5830242        41.31295        0.5830248        41.31233        0.2719686       -157.5408
4.752                  0.3255334       -157.9232         0.584441        40.05514        0.5844393        40.05455        0.2785047       -159.1514
4.754                  0.3309413       -159.4851        0.5857226        38.75559         0.585719        38.75509        0.2849892        -160.724
4.756                  0.3364284       -161.0277        0.5867127         37.4213        0.5867075        37.42097        0.2915707       -162.2657
4.758                  0.3420618       -162.5754        0.5873583        36.06716        0.5873524        36.06704        0.2983311       -163.8045
4.76                   0.3477807       -164.1533        0.5877357        34.70565        0.5877297        34.70575         0.305224        -165.371
4.762                    0.35343       -165.7707        0.5879872        33.33843        0.5879821        33.33874        0.3120986       -166.9785
4.764                  0.3588556       -167.4162        0.5882162        31.95517        0.5882125        31.95565        0.3187929       -168.6162
4.766                  0.3639972       -169.0661        0.5884079        30.54051        0.5884063        30.54109        0.3252315       -170.2577
4.768                  0.3689177       -170.7002        0.5884307        29.08432        0.5884314        29.08492        0.3314663       -171.8792
4.77                   0.3737507        -172.315        0.5881152        27.58834        0.5881181        27.58887          0.33763       -173.4749
4.772                  0.3786008       -173.9249        0.5873576        26.06488        0.5873621        26.06528        0.3438386       -175.0599
4.774                  0.3834644       -175.5524        0.5861774        24.52859        0.5861831        24.52882        0.3501025       -176.6598
4.776                  0.3882221       -177.2125        0.5846931        22.98682        0.5846993        22.98685         0.356311       -178.2932
4.778                   0.392709       -178.9029        0.5830324        21.43495        0.5830384        21.43478        0.3622954       -179.9596
4.78                   0.3968138        179.3944         0.581237        19.85965         0.581242         19.8593        0.3679315        178.3594
4.782                  0.4005419        177.7016         0.579226        18.24803        0.5792297        18.24752        0.3732097         176.688
4.784                  0.4040011        176.0312        0.5768424        16.59643         0.576844        16.59583        0.3782303         175.041
4.786                  0.4073204        174.3788        0.5739481        14.91311        0.5739477        14.91249        0.3831257        173.4148
4.788                  0.4105561        172.7274        0.5705076        13.21302        0.5705049        13.21245        0.3879627        171.7916
4.79                   0.4136465        171.0599         0.566601        11.50834        0.5665965         11.5079        0.3926891        170.1518
4.792                  0.4164481        169.3709        0.5623632         9.80085        0.5623578        9.800594        0.3971612         168.488
4.794                  0.4188252        167.6717        0.5578869        8.081122        0.5578811        8.081078        0.4012327        166.8103
4.796                  0.4207354        165.9832         0.553155         6.33524        0.5531493        6.335407        0.4048448        165.1404
4.798                  0.4222537        164.3234        0.5480473        4.554515        0.5480428        4.554868        0.4080594        163.4979
4.8                    0.4235208        162.6972        0.5424168        2.741819        0.5424137        2.742315        0.4110136        161.8889
4.802                  0.4246489        161.0941        0.5361815       0.9103567        0.5361802       0.9109395        0.4138253        160.3035
4.804                  0.4256489        159.4969        0.5293746      -0.9243126        0.5293752      -0.9237084        0.4165141        158.7235
4.806                  0.4264272        157.8945        0.5221182       -2.753818        0.5221208       -2.753263          0.41899        157.1361
4.808                  0.4268539        156.2899        0.5145399       -4.581907        0.5145442       -4.581473        0.4211165        155.5428
4.81                   0.4268564        154.6999        0.5066868       -6.421405        0.5066922       -6.421158        0.4228059        153.9595
4.812                  0.4264762        153.1441        0.4984939       -8.285019        0.4984999       -8.285004        0.4240836        152.4067
4.814                  0.4258513        151.6335         0.489828       -10.17594        0.4898336       -10.17618        0.4250782        150.8966
4.816                  0.4251358        150.1635        0.4805754       -12.08445        0.4805801       -12.08492        0.4259443        149.4256
4.818                  0.4244109        148.7174         0.470718       -13.99279         0.470721       -13.99345          0.42677        147.9777
4.82                    0.423645        147.2779        0.4603456       -15.88522        0.4603466       -15.88599          0.42753        146.5347
4.822                  0.4227312        145.8384        0.4495992       -17.75684         0.449598       -17.75762        0.4281158         145.089
4.824                  0.4215751        144.4067        0.4385822       -19.61529        0.4385789         -19.616         0.428422        143.6475
4.826                  0.4201727        142.9988        0.4272985        -21.4739        0.4272935       -21.47445        0.4284292        142.2261
4.828                  0.4186261        141.6268        0.4156586       -23.34038        0.4156526       -23.34069        0.4282281        140.8383
4.83                   0.4170866        140.2888        0.4035502        -25.2083        0.4035436       -25.20831        0.4279685        139.4842
4.832                  0.4156613         138.968        0.3909245       -27.05724        0.3909183       -27.05692        0.4277662        138.1489
4.834                  0.4143468        137.6413        0.3778451       -28.86159          0.37784       -28.86095        0.4276302        136.8104
4.836                  0.4130337        136.2922        0.3644647       -30.60289        0.3644614       -30.60196        0.4274594        135.4524
4.838                  0.4115777        134.9192        0.3509477       -32.27767        0.3509468       -32.27658        0.4271092        134.0725
4.84                   0.4098893        133.5337        0.3373885       -33.89548          0.33739       -33.89435        0.4264826        132.6818
4.842                  0.4079805        132.1498        0.3237788        -35.4674        0.3237826       -35.46641        0.4255849        131.2949
4.844                  0.4059396        130.7728        0.3100471       -36.99222        0.3100527       -36.99153        0.4245052        129.9186
4.846                   0.403852        129.3936        0.2961421       -38.44961        0.2961487       -38.44933        0.4233397        128.5459
4.848                  0.4017209         127.994        0.2821044       -39.80528         0.282111       -39.80551        0.4221081        127.1598
4.85                    0.399443        126.5581        0.2680776       -41.02608        0.2680832       -41.02683        0.4207216        125.7444
4.852                  0.3968562        125.0838        0.2542507       -42.09572        0.2542546       -42.09693        0.4190229        124.2958
4.854                  0.3938271        123.5842        0.2407672        -43.0205        0.2407689       -43.02203        0.4168737        122.8256
4.856                  0.3903206        122.0815        0.2276619       -43.81946         0.227661       -43.82113        0.4142292         121.354
4.858                  0.3864063        120.5935        0.2148682       -44.50357        0.2148649       -44.50513        0.4111533         119.899
4.86                   0.3822005        119.1248        0.2022933       -45.05729        0.2022879       -45.05846         0.407764        118.4658
4.862                  0.3777798        117.6664         0.189908       -45.43581        0.1899014       -45.43634        0.4041478        117.0464
4.864                  0.3731273        116.2044        0.1777917       -45.58171        0.1777849       -45.58141        0.4002977        115.6271
4.866                  0.3681451        114.7327           0.1661       -45.45148        0.1660941       -45.45027        0.3961196        114.2006
4.868                  0.3627246        113.2607        0.1549748       -45.03409        0.1549708       -45.03203        0.3914995         112.774
4.87                   0.3568274        111.8103         0.144462       -44.34503        0.1444605       -44.34238         0.386387        111.3669
4.872                  0.3505206        110.4052        0.1344947       -43.39424         0.134496       -43.39142        0.3808385        110.0012
4.874                  0.3439453        109.0577        0.1249629        -42.1474        0.1249668       -42.14492        0.3749912        108.6896
4.876                  0.3372361        107.7634        0.1158219       -40.50946        0.1158275       -40.50782        0.3689844        107.4286
4.878                  0.3304465        106.5065        0.1071632       -38.34814        0.1071697       -38.34778        0.3628802        106.2034
4.88                   0.3235296        105.2726       0.09919673       -35.54974       0.09920272       -35.55096         0.356638        104.9998
4.882                  0.3163876        104.0623       0.09214962       -32.07453       0.09215407        -32.0773        0.3501577        103.8162
4.884                  0.3089553        102.8934       0.08615412       -27.96723       0.08615607       -27.97116        0.3433649        102.6673
4.886                  0.3012624        101.7929       0.08121305       -23.30556       0.08121209       -23.30987        0.3362773         101.577
4.888                  0.2934312        100.7815       0.07727977       -18.13275       0.07727608        -18.1364          0.32901        100.5643