! TOUCHSTONE file generated by CST MICROWAVE STUDIO
! Date and time: Fri Oct 25 01:41:52 2024
! Project name: CoaxToWaveguideAdapter.cst
! Parameters = {AirCoaxOuterDiameter=3; ConnectorLength=10; DrillingHoleDiameter=4.5; GratingDistance=42.3057; GratingGap=3.8; GratingWireDiameter=1; Probe1Diameter=1.3; Probe1Distance=13.08; Probe1Length=12.16; Probe2Diameter=1.3; Probe2Distance=13.3; Probe2Length=12.16; SmaInnerDiameter=1.3; SmaOuterDiameter=4.5; WaveguideLength=160; WaveguideSide=50; WaveguideThickness=3; WireCount=13}
! Header version: 2018
! Port assignment regex: !\s*Touchstone port\s*([0-9]+)\s*=\s*(CST MWS port|CST DS port)\s*([0-9]+|Zmin|Zmax)\s*\(\"(.*)\"\)(\s*mode\s*([0-9]+))?.*
! Touchstone port assignment:
! Touchstone port 1 = CST MWS port 1 ("Input1")
! Touchstone port 2 = CST MWS port 2 ("Input2")
! S-Parameters are not renormalized. Unphysical impedance of 0 will be written to the file.
# GHz S MA R 0
4                      0.7995852        128.8119     0.0009965713       -163.5108     0.0005123313       -140.8935        0.8082862         128.567
4.003                  0.7978109        128.4178     0.0008993723        175.8145     0.0005126374       -153.4215        0.8074331        128.2498
4.006                  0.7953538        128.0378     0.0007367671        153.9181     0.0004461334       -163.3707        0.8065702        127.9129
4.009                  0.7924203        127.6953     0.0005255877        128.3802     0.0003439395       -164.6168         0.805497        127.5627
4.012                  0.7893572        127.4028     0.0003035461        89.55964      0.000284756       -149.1124         0.804155        127.2144
4.015                  0.7865455        127.1573     0.0002228192        8.634151     0.0003436205       -132.6519        0.8026667        126.8807
4.018                  0.7842835        126.9418     0.0004064654       -50.43749     0.0004549948       -132.8092        0.8012475        126.5634
4.021                  0.7826935        126.7299     0.0006376928       -80.45443     0.0005359901       -141.9084        0.8000546        126.2519
4.024                  0.7816856        126.4945     0.0008379341       -103.2312     0.0005501887        -153.475        0.7990755        125.9309
4.027                  0.7809863        126.2161     0.0009806304       -123.5471      0.000492688        -163.346        0.7981398         125.591
4.03                   0.7802265         125.889      0.001050943        -142.814     0.0003898191       -165.9359        0.7970395        125.2355
4.033                  0.7790554        125.5228      0.001041422       -161.6362     0.0003159244       -153.0707        0.7956765        124.8777
4.036                  0.7772481        125.1391     0.0009515196         179.587     0.0003620156       -135.2082        0.7941291        124.5318
4.039                  0.7747721        124.7652     0.0007874902         160.366     0.0004818035       -132.8632        0.7925961        124.2026
4.042                  0.7717969        124.4257     0.0005623622        139.5449     0.0005818007       -140.6409        0.7912549        123.8822
4.045                  0.7686416        124.1351     0.0002984763        111.8219     0.0006158506       -151.6391        0.7901377        123.5558
4.048                  0.7656774        123.8933     0.0001119381        15.21992     0.0005731046       -161.6883        0.7891085         123.212
4.051                  0.7632148        123.6854     0.0003398869        -62.1088      0.000474915       -166.1393        0.7879613         122.851
4.054                  0.7614054        123.4861     0.0006099231       -87.67043     0.0003867684       -158.3439        0.7865649         122.484
4.057                  0.7601959        123.2679     0.0008412218       -107.5768     0.0004040442       -142.3218        0.7849543        122.1258
4.06                   0.7593467        123.0094      0.001010821         -125.86     0.0005161753       -137.1132        0.7833041        121.7839
4.063                  0.7585066        122.7024      0.001103565       -143.4306     0.0006273396       -142.7893        0.7818051        121.4535
4.066                  0.7573239        122.3541      0.001110769       -160.6025     0.0006770613       -152.8037        0.7805298         121.121
4.069                  0.7555537        121.9845      0.001030551       -177.5051     0.0006451839       -162.7797        0.7793822        120.7735
4.072                  0.7531315        121.6205     0.0008679511        165.8151     0.0005464726       -168.3673        0.7781678        120.4077
4.075                  0.7501925        121.2878     0.0006345938        149.3902     0.0004407107       -163.1447        0.7767311        120.0328
4.078                  0.7470306        121.0031     0.0003478619        133.5267     0.0004326305         -147.16         0.775064        119.6631
4.081                  0.7440088         120.769      3.07006e-05        132.6043     0.0005435614       -138.9611        0.7733109        119.3084
4.084                   0.741448        120.5724     0.0002961492       -82.44088     0.0006741575       -142.6979        0.7716645        118.9669
4.087                  0.7395265        120.3891     0.0006029282       -97.77865     0.0007483158       -151.8173        0.7702292        118.6265
4.09                   0.7382258         120.191     0.0008667939       -113.6203     0.0007362761       -161.6182        0.7689483        118.2737
4.093                  0.7373353        119.9549      0.001066295       -129.4662     0.0006468402       -168.0385        0.7676443        117.9025
4.096                  0.7365211        119.6701      0.001184766       -145.1878     0.0005344707       -165.6342        0.7661464        117.5195
4.099                  0.7354293        119.3413      0.001211706        -160.683     0.0005033177       -152.5901        0.7644104        117.1385
4.102                  0.7337961         118.987      0.001143751       -175.7978     0.0006031993       -143.2128        0.7625488        116.7708
4.105                  0.7315272        118.6342     0.0009851959        169.7876     0.0007465569        -145.147        0.7607508        116.4177
4.108                   0.728727        118.3097      0.000748301        156.9264     0.0008421355       -153.3573        0.7591462        116.0687
4.111                  0.7256664        118.0322     0.0004551987        148.9535     0.0008469577       -163.1021        0.7577147        115.7098
4.114                   0.722702        117.8068     0.0001732978        174.1424     0.0007606787       -170.5035        0.7563001        115.3331
4.117                  0.7201657        117.6224     0.0003091466       -110.5162     0.0006305487       -170.5292        0.7547221        114.9424
4.12                   0.7182621        117.4556     0.0006306237       -110.6394     0.0005629615       -159.2369        0.7529054        114.5507
4.123                  0.7170034        117.2774     0.0009253357       -121.4425     0.0006446781       -147.4862        0.7509325        114.1707
4.126                  0.7162061        117.0627      0.001157354       -134.5571     0.0008043436       -146.9072         0.748985         113.806
4.129                  0.7155493        116.7981      0.001305069       -148.3582     0.0009299202       -153.9049        0.7472137         113.448
4.132                  0.7146747         116.486      0.001354843       -162.2297      0.000961269       -163.3327        0.7456311        113.0826
4.135                   0.713298        116.1437      0.001301292       -175.7351     0.0008877782       -171.2459         0.744101        112.6996
4.138                  0.7112954         115.798      0.001148076        171.7138     0.0007506996       -172.9994        0.7424355        112.3004
4.141                  0.7087419        115.4773     0.0009091891        161.3872     0.0006571912       -164.0221        0.7405292        111.8971
4.144                  0.7058889        115.2026     0.0006145139        157.2357      0.000722198       -151.7293        0.7384344        111.5037
4.147                  0.7030892        114.9814     0.0003513424        175.9609     0.0008991164       -149.4047        0.7363245        111.1264
4.15                   0.7006889        114.8048     0.0004025295       -135.6888      0.001058775       -155.5452        0.7343704        110.7588
4.153                  0.6989196        114.6496     0.0007097717       -124.8817       0.00112019       -165.0018        0.7326179        110.3863
4.156                   0.697824        114.4859      0.001031642       -130.7581      0.001058402         -173.86        0.7309531        109.9968
4.159                  0.6972427        114.2862        0.0012987        -141.221     0.0009045581       -177.8315        0.7291832        109.5892
4.162                  0.6968631        114.0343      0.001478985       -153.2581     0.0007632402       -171.5236        0.7271739        109.1744
4.165                  0.6963177        113.7301      0.001553515        -165.749     0.0007865835       -158.0411        0.7249464        108.7676
4.168                  0.6952972          113.39      0.001513803       -178.0106     0.0009747436       -152.7692        0.7226647        108.3777
4.171                   0.693646         113.041      0.001362437        170.7168      0.001176619       -157.5053        0.7205187        108.0002
4.174                  0.6914105        112.7133      0.001115198        161.8459      0.001279169       -166.8105        0.7185878        107.6206
4.177                  0.6888266         112.431     0.0008090079        159.0767      0.001237004        -176.463        0.7167811        107.2246
4.18                   0.6862503        112.2043     0.0005415477        173.3997      0.001068543        177.7229        0.7149001        106.8082
4.183                  0.6840494         112.026     0.0005509412       -151.9249     0.0008758235       -178.2432        0.7127805        106.3813
4.186                  0.6824891        111.8733     0.0008475453       -137.7595     0.0008515679       -163.5934        0.7104126        105.9605
4.189                  0.6816455        111.7144      0.001201223       -140.5056       0.00105983       -155.2997        0.7079511        105.5573
4.192                  0.6813804        111.5185      0.001509039       -149.2458      0.001324022       -159.0253        0.7056077        105.1695
4.195                   0.681381        111.2659      0.001724252       -160.2991      0.001486561       -168.8117        0.7034964        104.7823
4.198                  0.6812568        110.9537      0.001819685       -172.2373      0.001473308        179.9514        0.7015461        104.3784
4.201                  0.6806593        110.5971      0.001781669        175.7448      0.001281987        171.2156        0.6995449        103.9511
4.204                  0.6793896        110.2247      0.001609967        164.4326      0.001000556        171.3645        0.6972918        103.5095
4.207                  0.6774607        109.8699      0.001319976        155.1852     0.0008644751       -172.5478        0.6947453        103.0728
4.21                   0.6750988        109.5612     0.0009513428        151.5769      0.001075695       -158.1452         0.692064        102.6564
4.213                  0.6726803        109.3131     0.0006142331        165.2522      0.001428702       -160.2862        0.6895004          102.26
4.216                  0.6706205        109.1209     0.0006133217       -157.0499      0.001680933       -171.3614        0.6872182        101.8668
4.219                  0.6692463         108.961     0.0009790105       -142.5133      0.001711433        174.3295          0.68516        101.4543
4.222                  0.6686892        108.7973      0.001409048       -146.5737      0.001482533         160.233        0.6830714         101.011
4.225                  0.6688368        108.5924      0.001774754       -157.1594      0.001039425        151.8586        0.6806736        100.5463
4.228                  0.6693571        108.3186      0.002015971       -170.7672     0.0006088676        169.9841        0.6778736        100.0859
4.231                  0.6697909        107.9669       0.00209551        173.5159     0.0008062296       -150.5914        0.6748593        99.65371
4.234                  0.6696819        107.5502      0.001994855        155.4715      0.001343144       -152.8099        0.6719998        99.25344
4.237                  0.6687057        107.0993      0.001721705        133.5678      0.001736334       -170.9075        0.6695921        98.86099
4.24                   0.6667634         106.656      0.001340236        103.1316      0.001830581        163.1841        0.6676165        98.43659
4.243                  0.6640145        106.2616       0.00108541         54.2816      0.001631359        126.7871         0.665673        97.95025
4.246                  0.6608412        105.9463      0.001383617       -1.441657      0.001476529        70.52745        0.6631672        97.40542
4.249                  0.6577525        105.7211      0.002168764       -37.84125      0.002075864        9.117583        0.6596553        96.84433
4.252                   0.655252        105.5735      0.003150083       -62.29745      0.003387893       -32.42857        0.6551429        96.33054
4.255                  0.6537032        105.4709      0.004179155       -81.76983      0.004957464       -62.58207          0.65016        95.91696
4.258                  0.6532344        105.3692      0.005164856       -98.82408      0.006468872       -87.86968        0.6455431        95.61514
4.261                  0.6537124         105.225      0.006034985       -114.4473      0.007681383       -110.5559        0.6420262        95.38428
4.264                  0.6547903        105.0075      0.006729531       -129.0429      0.008412781       -131.3674        0.6398611        95.14889
4.267                  0.6560154        104.7059      0.007201728       -142.7526      0.008556825       -150.3648        0.6386922        94.83664
4.27                   0.6569577        104.3302      0.007421048       -155.5666      0.008104426       -167.1308         0.637759        94.41412
4.273                  0.6573211        103.9061      0.007376652       -167.3524       0.00716238        179.3458        0.6362994         93.8991
4.276                    0.65701        103.4665      0.007081055       -177.8409      0.005974279        170.9675        0.6339123        93.34528
4.279                  0.6561318        103.0415      0.006574456        173.4177      0.004942342        170.2491        0.6306941        92.81061
4.282                  0.6549455        102.6503      0.005930749        167.1145       0.00453304        176.4444         0.627098        92.32799
4.285                  0.6537663        102.2963      0.005265429        164.1617      0.004841558       -178.3477        0.6236281        91.89302
4.288                  0.6528623        101.9678      0.004737753        165.2698      0.005438747       -179.1752        0.6205508        91.47381
4.291                  0.6523687        101.6425       0.00451574        169.7174      0.005890842        175.8254        0.6177904        91.03517
4.294                  0.6522521        101.2961      0.004675593        174.5869       0.00601159         169.776        0.6150446        90.56113
4.297                  0.6523294        100.9109      0.005132468        176.9459      0.005834591        165.1631        0.6120207        90.06171
4.3                    0.6523381        100.4813      0.005714306        176.0891      0.005557906        163.6457        0.6086262        89.56237
4.303                  0.6520289        100.0162      0.006265258        172.8255      0.005450062        165.1511        0.6050034        89.08494
4.306                  0.6512522        99.53513      0.006681919        168.2474      0.005666758        167.2152        0.6014051        88.63324
4.309                  0.6500104        99.06193      0.006912838        163.3081      0.006119962        167.2136        0.5980105         88.1922
4.312                  0.6484596        98.61685      0.006953772        158.8123      0.006586155        164.7774        0.5948103        87.73996
4.315                  0.6468625        98.20925      0.006845998        155.4641      0.006891456        161.1573        0.5916307        87.26338
4.318                  0.6455025        97.83416      0.006674917        153.8244      0.006997057        157.8959        0.5882672        86.76669
4.321                  0.6445909        97.47306      0.006560439        154.0915      0.007000121        156.1127        0.5846285        86.26696
4.324                   0.644192        97.09937       0.00662611        155.7737      0.007074523        155.9628        0.5807903        85.78167
4.327                  0.6441967        96.68683      0.006946444         157.678      0.007355354        156.4156        0.5769307        85.31637
4.33                   0.6443517         96.2182      0.007508209         158.554      0.007837453        156.0722         0.573199        84.86142
4.333                  0.6443361        95.69082      0.008223668        157.7972       0.00839269        154.3587        0.5696122        84.39937
4.336                  0.6438606        95.11766      0.008977374        155.5104      0.008879307        151.7092         0.566049        83.91776
4.339                  0.6427586        94.52343      0.009665664          152.17      0.009234166        148.9912        0.5623406        83.41744
4.342                  0.6410402        93.93716       0.01021725        148.3521      0.009502289         146.941        0.5583892        82.91176
4.345                  0.6388938        93.38326       0.01060278        144.6137      0.009805027        145.7752        0.5542313        82.41673
4.348                  0.6366314        92.87348       0.01084001         141.449       0.01025969        145.0651        0.5500047         81.9399
4.351                  0.6345939        92.40219       0.01099546        139.2373       0.01089738        144.0773        0.5458464        81.47537
4.354                  0.6330398        91.94709       0.01117794         138.143       0.01164794         142.363        0.5417956        81.00832
4.357                  0.6320561        91.47509       0.01151638         137.988       0.01240241        140.0172        0.5377663        80.52594
4.36                   0.6315178        90.95242       0.01211964        138.2236       0.01309373        137.4858        0.5336105        80.02655
4.363                  0.6311153        90.35511       0.01303425        138.1339       0.01374078        135.2219        0.5292205        79.52081
4.366                  0.6304392        89.67662       0.01422808        137.1695       0.01443725         133.408        0.5246003        79.02448
4.369                  0.6290989        88.93033       0.01560968        135.1399       0.01529241        131.8574        0.5198574        78.54765
4.372                  0.6268355        88.14546       0.01706471        132.1715       0.01636028          130.17        0.5151223        78.08819
4.375                  0.6235996          87.359       0.01848915        128.5677       0.01761089        128.0395        0.5104537        77.63363
4.378                  0.6195667        86.60446       0.01981321        124.6902       0.01896625        125.4428        0.5057937        77.17076
4.381                   0.615083          85.901       0.02101804        120.8886       0.02036832        122.5863        0.5010057        76.69568
4.384                  0.6105518        85.24574        0.0221472        117.4502       0.02182937        119.7154        0.4959644        76.21771
4.387                  0.6062864        84.61215       0.02331082        114.5474       0.02343462        116.9373        0.4906378        75.75473
4.39                   0.6023721        83.95606       0.02467592        112.1743       0.02529692        114.1533        0.4851044        75.32268
4.393                  0.5985834        83.22928        0.0264361        110.1084       0.02749338        111.1358        0.4794958        74.92702
4.396                   0.594386        82.39583       0.02876253         107.948       0.03003094        107.6874        0.4739048        74.56188
4.399                  0.5890328        81.44764       0.03175448        105.2439       0.03286744        103.7489        0.4683236        74.21775
4.402                  0.5817282        80.41396       0.03541314        101.6521       0.03597012        99.38246         0.462656        73.89345
4.405                  0.5718231        79.36443        0.0396475        97.01233       0.03936601        94.66777        0.4568032        73.60396
4.408                  0.5590008        78.40542        0.0443002        91.33147       0.04314503        89.59786        0.4507725        73.37878
4.411                  0.5434227        77.67106       0.04917651        84.72102       0.04740433        84.04248        0.4447482        73.25054
4.414                  0.5258105        77.30838       0.05406752        77.33728       0.05215958        77.80182         0.439081        73.23894
4.417                  0.5074459          77.454       0.05876644        69.34361       0.05727442        70.71061        0.4341993        73.33684
4.42                   0.4900638        78.20125       0.06308001        60.89278       0.06244927        62.71955        0.4304786        73.50547
4.423                   0.475615        79.55904       0.06683697        52.12134       0.06727249        53.91454        0.4281231        73.68058
4.426                  0.4658994        81.41767       0.06989469        43.15027       0.07130706        44.48708        0.4271001        73.78744
4.429                    0.46214        83.54691       0.07214459         34.0881       0.07418114        34.69078        0.4271418        73.75827
4.432                  0.4646527        85.64555       0.07351629        25.03488       0.07566074        24.80518        0.4278008        73.54628
4.435                  0.4727752        87.42755       0.07398068        16.08587       0.07569272        15.10995         0.428536        73.13388
4.438                  0.4850968        88.69799       0.07355151        7.335027        0.0744122        5.863808        0.4288121        72.53402
4.441                  0.4998613         89.3821       0.07228573       -1.122539       0.07211265       -2.719394        0.4281957        71.78614
4.444                  0.5153594        89.50737       0.07028209       -9.189066       0.06918134       -10.49998        0.4264338        70.94709
4.447                  0.5301966        89.16459       0.06767794       -16.76473       0.06601137       -17.44014        0.4234943        70.07851
4.45                   0.5434156        88.47033       0.06464372       -23.75138       0.06291322       -23.61163        0.4195488        69.23283
4.453                  0.5545033        87.54044       0.06137426       -30.06103       0.06005803       -29.16477        0.4148949        68.44178
4.456                  0.5633268        86.47463       0.05807605        -35.6306       0.05747841       -34.26263        0.4098421        67.71215
4.459                  0.5700317         85.3497       0.05494934        -40.4423         0.055124       -39.01544        0.4046056        67.03083
4.462                  0.5749302        84.21813       0.05216539       -44.54487       0.05293702       -43.45628        0.3992571        66.37781
4.465                  0.5783993        83.11046       0.04984195        -48.0648       0.05090404       -47.56909         0.393754        65.74014
4.468                  0.5808026        82.03991       0.04802375       -51.19451       0.04906033       -51.34542        0.3880224        65.11952
4.471                  0.5824415        81.00784       0.04667688       -54.15318       0.04745414       -54.82916        0.3820436         64.5294
4.474                  0.5835397        80.00917       0.04570195       -57.13315       0.04610098       -58.11759        0.3758893        63.98452
4.477                  0.5842488        79.03636       0.04496267       -60.25617       0.04496198       -61.31691         0.369689        63.48969
4.48                   0.5846664        78.08194       0.04431985       -63.55628       0.04396146       -64.48571        0.3635545        63.03544
4.483                  0.5848562        77.13921       0.04366029       -66.98923       0.04302983       -67.61022        0.3575147        62.60375
4.486                  0.5848589        76.20213       0.04291516       -70.45723       0.04214093       -70.62821        0.3515055        62.17989
4.489                  0.5846963        75.26503       0.04206688       -73.83821        0.0413197       -73.48383        0.3454217        61.76254
4.492                  0.5843684         74.3226       0.04114619       -77.01456       0.04061636       -76.17668        0.3391949        61.36485
4.495                  0.5838522        73.37072       0.04022101       -79.89997       0.04006506        -78.7719        0.3328444        61.00578
4.498                  0.5831051        72.40758       0.03937859       -82.46256       0.03965499       -81.36223        0.3264666        60.69738
4.501                  0.5820783        71.43465       0.03870318       -84.73908       0.03933378       -84.00892        0.3201715        60.43666
4.504                  0.5807366        70.45691       0.03825353       -86.83166       0.03903964       -86.70503        0.3140093        60.20793
4.507                  0.5790782        69.48194        0.0380462       -88.88311       0.03873903       -89.38629        0.3079399        59.99443
4.51                   0.5771478        68.51783       0.03805074       -91.03572       0.03844474       -91.97927        0.3018645        59.79125
4.513                  0.5750362        67.57051       0.03819856       -93.39095       0.03820306       -94.45456        0.2956992         59.6104
4.516                  0.5728648        66.64113       0.03840188       -95.98537       0.03805939       -96.85007        0.2894375        59.47429
4.519                  0.5707543        65.72466       0.03857584       -98.78881       0.03802469       -99.24763        0.2831588        59.40179
4.522                  0.5687919         64.8102       0.03865764       -101.7192       0.03806621       -101.7181        0.2769783        59.39626
4.525                   0.567001        63.88326       0.03861898       -104.6661       0.03812824       -104.2745        0.2709715         59.4444
4.528                  0.5653303        62.92957       0.03847056       -107.5156       0.03816794       -106.8664        0.2651279        59.52691
4.531                  0.5636624         61.9392       0.03825853        -110.176         0.038182       -109.4157        0.2593656        59.63435
4.534                  0.5618464        60.90959       0.03805351       -112.5988       0.03820696       -111.8692        0.2535978        59.77625
4.537                  0.5597403        59.84681       0.03793336       -114.7946       0.03829364        -114.235        0.2478019        59.97711
4.54                   0.5572565        58.76404       0.03796291       -116.8335       0.03847216       -116.5771        0.2420446        60.26135
4.543                  0.5543915        57.67795       0.03817597       -118.8291       0.03873109       -118.9724        0.2364433        60.63756
4.546                  0.5512337        56.60381       0.03856545       -120.9053       0.03902502       -121.4586        0.2310921        61.09342
4.549                  0.5479432        55.55056       0.03908548       -123.1597       0.03930484        -124.011        0.2260045        61.60558
4.552                  0.5447099        54.51731       0.03966447       -125.6381       0.03954995       -126.5616        0.2211143         62.1582
4.555                  0.5416972        53.49255       0.04022441       -128.3265       0.03978116       -129.0452        0.2163348        62.75636
4.558                  0.5389924        52.45662       0.04070029       -131.1606       0.04004648       -131.4432         0.211633        63.42441
4.561                  0.5365758        51.38688       0.04105513       -134.0446       0.04038872       -133.7962        0.2070645        64.18942
4.564                  0.5343214         50.2642       0.04128815        -136.874       0.04081638        -136.177        0.2027453        65.06147
4.567                  0.5320308        49.07861       0.04143489       -139.5591       0.04129743       -138.6419        0.1987782        66.02493
4.57                   0.5294892        47.83246       0.04155928       -142.0461       0.04178047       -141.1936        0.1951889        67.04823
4.573                  0.5265291        46.53988       0.04173848        -144.332       0.04222828        -143.782        0.1919181         68.1056
4.576                  0.5230811        45.22294       0.04204309       -146.4687        0.0426418       -146.3382        0.1888761         69.1944
4.579                  0.5191993        43.90533       0.04251765       -148.5512       0.04305909       -148.8198         0.186019        70.33462
4.582                   0.515051        42.60519       0.04316756       -150.6901       0.04353004       -151.2378        0.1833899        71.55013
4.585                  0.5108734        41.32906       0.04395727       -152.9798        0.0440831       -153.6489        0.1810944        72.84553