! TOUCHSTONE file generated by CST MICROWAVE STUDIO
! Date and time: Fri Oct 25 01:20:42 2024
! Project name: CoaxToWaveguideAdapter.cst
! Parameters = {AirCoaxOuterDiameter=3; ConnectorLength=10; DrillingHoleDiameter=4.5; GratingDistance=42.3057; GratingGap=3.8; GratingWireDiameter=1; Probe1Diameter=1.3; Probe1Distance=13.08; Probe1Length=12.16; Probe2Diameter=1.3; Probe2Distance=13.3; Probe2Length=12.16; SmaInnerDiameter=1.3; SmaOuterDiameter=4.5; WaveguideLength=160; WaveguideSide=50; WaveguideThickness=3; WireCount=13}
! Header version: 2018
! Port assignment regex: !\s*Touchstone port\s*([0-9]+)\s*=\s*(CST MWS port|CST DS port)\s*([0-9]+|Zmin|Zmax)\s*\(\"(.*)\"\)(\s*mode\s*([0-9]+))?.*
! Touchstone port assignment:
! Touchstone port 1 = CST MWS port 1 ("Input1")
! Touchstone port 2 = CST MWS port 2 ("Input2")
! Touchstone port 3 = CST MWS port 3 ("Output") mode 1
! Touchstone port 4 = CST MWS port 3 ("Output") mode 2
! S-Parameters are not renormalized. Unphysical impedance of 0 will be written to the file.
# GHz S MA R 0
4                      0.7983763        130.3551     0.0003410583       -154.9322                0               0                0               0
                    0.0003411008       -154.9349        0.7848936        128.8486                0               0                0               0
                       0.6062623        86.70718     0.0002159848        -138.443                0               0                0               0
                    0.0001786067        64.57803        0.6164561       -55.59484                0               0                0               0
4.003                  0.7929293         129.892     0.0003543995       -154.2206                0               0                0               0
                    0.0003544205       -154.2245        0.7834211        128.5638                0               0                0               0
                       0.6032747        85.79514     0.0002117195       -144.3592                0               0                0               0
                    0.0001626709        64.43836          0.61798       -56.23832                0               0                0               0
4.006                   0.787121        129.7328     0.0003692284        -155.068                0               0                0               0
                    0.0003692343       -155.0702        0.7822137        128.2915                0               0                0               0
                       0.6029014        85.15091     0.0001968732       -147.6562                0               0                0               0
                    0.0001550366        69.21359         0.619704       -56.89749                0               0                0               0
4.009                   0.784314        129.7932     0.0003780499        -156.977                0               0                0               0
                    0.0003780573       -156.9765        0.7813121         128.012                0               0                0               0
                       0.6063719        84.49165     0.0001821654        -146.426                0               0                0               0
                    0.0001640043         74.4276        0.6214303       -57.58055                0               0                0               0
4.012                  0.7857408        129.8266     0.0003777936       -158.8848                0               0                0               0
                    0.0003778171       -158.8832        0.7805376        127.7103                0               0                0               0
                       0.6122331        83.54789     0.0001804142       -141.8617                0               0                0               0
                    0.0001835396        75.14382        0.6229632       -58.27904                0               0                0               0
4.015                  0.7895937        129.6058     0.0003713412       -159.7792                0               0                0               0
                    0.0003713839       -159.7791        0.7796225        127.3865                0               0                0               0
                       0.6174082        82.25513     0.0001948523       -138.8365                0               0                0               0
                    0.0002007458        71.41223        0.6242434       -58.97391                0               0                0               0
4.018                   0.792365         129.089      0.000365866       -159.2561                0               0                0               0
                    0.0003659146       -159.2601         0.778398        127.0558                0               0                0               0
                       0.6193378        80.78514     0.0002154719       -140.2267                0               0                0               0
                    0.0002066274        65.74227        0.6253885       -59.64887                0               0                0               0
4.021                  0.7913511        128.4402     0.0003681663       -157.9264                0               0                0               0
                    0.0003681988       -157.9344        0.7769107        126.7372                0               0                0               0
                       0.6176693        79.42268      0.000229845       -144.9311                0               0                0               0
                    0.0001992989        60.83112        0.6266085       -60.30159                0               0                0               0
4.024                  0.7865001         127.912     0.0003793897       -157.0492                0               0                0               0
                    0.0003793915       -157.0583        0.7753865        126.4405                0               0                0               0
                       0.6144789        78.38244     0.0002312073       -150.5453                0               0                0               0
                    0.0001842839        59.20051        0.6280608       -60.94508                0               0                0               0
4.027                  0.7804441        127.6761     0.0003941796       -157.4486                0               0                0               0
                    0.0003941541       -157.4554        0.7740705        126.1593                0               0                0               0
                       0.6129118        77.66391     0.0002203341       -154.6485                0               0                0               0
                    0.0001732287        62.14697        0.6297404       -61.59853                0               0                0               0
4.03                    0.776699        127.7003      0.000405151       -158.9578                0               0                0               0
                    0.0004051156       -158.9606        0.7730543        125.8758                0               0                0               0
                       0.6150242         77.0405     0.0002053116        -155.226                0               0                0               0
                    0.0001769055        67.11845        0.6314854       -62.27395                0               0                0               0
4.033                  0.7771584        127.7619     0.0004079855       -160.7454                0               0                0               0
                    0.0004079599        -160.745        0.7722142        125.5734                0               0                0               0
                       0.6203085        76.21795      0.000198488       -152.1551                0               0                0               0
                     0.000194117        69.20936        0.6330911       -62.96782                0               0                0               0
4.036                   0.780695         127.609     0.0004038238       -161.8748                0               0                0               0
                    0.0004038193       -161.8731        0.7713011        125.2482                0               0                0               0
                       0.6260654        75.04785     0.0002072913       -148.7481                0               0                0               0
                    0.0002132675        66.93672         0.634452       -63.66398                0               0                0               0
4.039                  0.7839987         127.147     0.0003985192       -161.8139                0               0                0               0
                    0.0003985334       -161.8135        0.7701168        124.9118                0               0                0               0
                       0.6293162        73.62262     0.0002264057       -148.6032                0               0                0               0
                    0.0002235591        62.07053        0.6356338       -64.34485                0               0                0               0
4.042                  0.7839633        126.4989     0.0003989422       -160.8421                0               0                0               0
                    0.0003989604       -160.8444        0.7686527        124.5827                0               0                0               0
                       0.6288069        72.20111      0.000243778       -151.9622                0               0                0               0
                    0.0002206388        57.09567        0.6368266       -65.00355                0               0                0               0
4.045                  0.7798327        125.9135     0.0004079286       -159.9429                0               0                0               0
                     0.000407935       -159.9471        0.7670913        124.2734                0               0                0               0
                       0.6258182        71.03884     0.0002503987       -156.9746                0               0                0               0
                    0.0002076488        54.41308        0.6382124       -65.64859                0               0                0               0
4.048                  0.7737096        125.5982     0.0004220539       -159.9984                0               0                0               0
                    0.0004220437       -160.0023        0.7656774        123.9818                0               0                0               0
                       0.6233366        70.22093     0.0002442189       -161.4216                0               0                0               0
                    0.0001945298        55.69575         0.639839       -66.29779                0               0                0               0
4.051                  0.7691313        125.5742     0.0004345574       -161.1162                0               0                0               0
                    0.0004345379       -161.1186        0.7645447        123.6925                0               0                0               0
                       0.6240421        69.59464     0.0002306088       -163.3105                0               0                0               0
                    0.0001931759        59.89199        0.6415884       -66.96586                0               0                0               0
4.054                  0.7685743        125.6513     0.0004402733       -162.7087                0               0                0               0
                    0.0004402568       -162.7094        0.7636237        123.3881                0               0                0               0
                       0.6284102        68.86966     0.0002205032       -161.7932                0               0                0               0
                    0.0002068873        62.86225        0.6432602       -67.65421                0               0                0               0
4.057                  0.7716312        125.5622     0.0004387452       -163.9522                0               0                0               0
                    0.0004387395       -163.9523        0.7626929        123.0611                0               0                0               0
                       0.6343663        67.82913     0.0002236949       -158.7077                0               0                0               0
                     0.000226738        61.98436        0.6447106       -68.35035                0               0                0               0
4.06                   0.7753107        125.1616      0.000434364       -164.2566                0               0                0               0
                     0.000434367       -164.2576         0.761537        122.7193                0               0                0               0
                       0.6387725        66.47933      0.000239715       -157.4915                0               0                0               0
                    0.0002409092        58.07455        0.6459513       -69.03664                0               0                0               0
4.063                  0.7762132        124.5259     0.0004336123       -163.6535                0               0                0               0
                    0.0004336127       -163.6561        0.7600969        122.3802                0               0                0               0
                       0.6395811        65.03277      0.000258504       -159.5292                0               0                0               0
                     0.000242657        53.30328        0.6471396       -69.70247                0               0                0               0
4.066                  0.7729045        123.8921      0.000440506        -162.847                0               0                0               0
                    0.0004404923       -162.8502         0.758509        122.0582                0               0                0               0
                       0.6371751        63.76346     0.0002696549        -163.731                0               0                0               0
                    0.0002326522        49.94264        0.6484677        -70.3516                0               0                0               0
4.069                  0.7668875        123.4965     0.0004535138       -162.6739                0               0                0               0
                    0.0004534846       -162.6759        0.7570078         121.755                0               0                0               0
                        0.634125        62.83032     0.0002684901       -168.1613                0               0                0               0
                    0.0002188454        49.82542        0.6500302        -70.9992                0               0                0               0
4.072                   0.761596        123.4133      0.000466926       -163.4403                0               0                0               0
                    0.0004668918       -163.4399          0.75576        121.4583                0               0                0               0
                        0.633487        62.16443     0.0002576371       -170.9142                0               0                0               0
                    0.0002131926        52.94406        0.6517586       -71.66137                0               0                0               0
4.075                  0.7599987        123.4926     0.0004751841       -164.7942                0               0                0               0
                    0.0004751601       -164.7915        0.7547483        121.1504                0               0                0               0
                       0.6366739        61.50649     0.0002460714       -170.7792                0               0                0               0
                    0.0002226311        56.26269        0.6534718       -72.34381                0               0                0               0
4.078                  0.7624278        123.4614     0.0004764649       -166.0536                0               0                0               0
                    0.0004764619       -166.0501        0.7537858         120.821                0               0                0               0
                       0.6424297         60.5924     0.0002444004       -168.4657                0               0                0               0
                    0.0002418853        56.59378        0.6550021       -73.03814                0               0                0               0
4.081                  0.7663217        123.1271     0.0004736465       -166.6254                0               0                0               0
                    0.0004736639        -166.623         0.752649         120.474                0               0                0               0
                       0.6477357        59.34232     0.0002562741       -166.7131                0               0                0               0
                    0.0002591801        53.72197        0.6563118       -73.72799                0               0                0               0
4.084                  0.7680999        122.5151      0.000472461       -166.3687                0               0                0               0
                    0.0004724862       -166.3687        0.7512344        120.1247                0               0                0               0
                        0.649917        57.90526     0.0002748486       -167.5922                0               0                0               0
                    0.0002656371        49.36244        0.6575173       -74.40036                0               0                0               0
4.087                  0.7656894         121.842     0.0004775932       -165.7336                0               0                0               0
                    0.0004776094       -165.7358        0.7496292        119.7893                0               0                0               0
                        0.648423        56.55135     0.0002894745        -170.867                0               0                0               0
                    0.0002593833        45.62843        0.6588077       -75.05453                0               0                0               0
4.09                   0.7599378        121.3664     0.0004892054       -165.4421                0               0                0               0
                    0.0004892038       -165.4446        0.7480479         119.473                0               0                0               0
                        0.645189        55.49722     0.0002932529       -175.0017                0               0                0               0
                    0.0002461521         44.3964        0.6603128       -75.70252                0               0                0               0
4.093                  0.7540578        121.2145     0.0005029394       -165.9153                0               0                0               0
                    0.0005029249       -165.9166        0.7466809         119.167                0               0                0               0
                       0.6433772        54.76001     0.0002861195        -178.233                0               0                0               0
                    0.0002371755        46.33341        0.6620133       -76.36054                0               0                0               0
4.096                  0.7514137        121.2829     0.0005133127       -167.0122                0               0                0               0
                    0.0005132993       -167.0116         0.745562        118.8543                0               0                0               0
                       0.6452122        54.13444     0.0002747842       -179.1985                0               0                0               0
                     0.000241965        49.53207        0.6637553       -77.03774                0               0                0               0
4.099                  0.7530815         121.303      0.000517444         -168.21                0               0                0               0
                    0.0005174453       -168.2082        0.7445466         118.522                0               0                0               0
                       0.6503843        53.33428     0.0002695194       -177.8493                0               0                0               0
                    0.0002593456        50.79906        0.6653588       -77.72994                0               0                0               0
4.102                  0.7570303        121.0392     0.0005167323       -168.9567                0               0                0               0
                    0.0005167531       -168.9553        0.7434156        118.1702                0               0                0               0
                       0.6562656        52.20037     0.0002769007        -176.056                0               0                0               0
                    0.0002787846        48.98208         0.666742       -78.42282                0               0                0               0
4.105                  0.7596134        120.4617     0.0005158817       -169.0039                0               0                0               0
                    0.0005159145       -169.0043        0.7420288        117.8116                0               0                0               0
                       0.6597709        50.80561     0.0002938298       -176.0614                0               0                0               0
                    0.0002897578        45.20026        0.6679773       -79.10177                0               0                0               0
4.108                  0.7581663         119.759      0.000519753       -168.5885                0               0                0               0
                    0.0005197824       -168.5913        0.7404224        117.4627                0               0                0               0
                       0.6594458        49.39482     0.0003106604       -178.4015                0               0                0               0
                    0.0002878346        41.35157        0.6692398       -79.76211                0               0                0               0
4.111                  0.7528359        119.2046     0.0005298764       -168.2786                0               0                0               0
                    0.0005298905       -168.2827        0.7387797        117.1319                0               0                0               0
                       0.6564217         48.2234     0.0003189359        177.9514                0               0                0               0
                    0.0002763354        39.28922        0.6706858       -80.41215                0               0                0               0
4.114                  0.7465021        118.9747      0.000543398       -168.5324                0               0                0               0
                    0.0005433955       -168.5363        0.7373023         116.814                0               0                0               0
                       0.6536935        47.39032     0.0003160726        174.5521                0               0                0               0
                     0.000265183        40.08949        0.6723439       -81.06739                0               0                0               0
4.117                  0.7428219        119.0187     0.0005553613       -169.3775                0               0                0               0
                    0.0005553511       -169.3803         0.736068         116.494                0               0                0               0
                       0.6541107        46.76126     0.0003063647        172.7898                0               0                0               0
                    0.0002653992        42.81862        0.6740972        -81.7395                0               0                0               0
4.12                   0.7436047        119.0818      0.000562215       -170.4558                0               0                0               0
                    0.0005622081       -170.4576        0.7349784        116.1572                0               0                0               0
                       0.6583583        46.05442     0.0002989693        173.1794                0               0                0               0
                    0.0002798229        44.69386        0.6757649       -82.42856                0               0                0               0
4.123                   0.747444        118.8914     0.0005640115       -171.2908                0               0                0               0
                    0.0005640128       -171.2928        0.7338311        115.8003                0               0                0               0
                       0.6644474         45.0447     0.0003021381        174.6483                0               0                0               0
                    0.0003002946        43.87355        0.6772289       -83.12295                0               0                0               0
4.126                  0.7507451        118.3591     0.0005642442       -171.5825                0               0                0               0
                    0.0005642486       -171.5856         0.732462        115.4326                0               0                0               0
                       0.6691334         43.7214     0.0003163637        175.1761                0               0                0               0
                    0.0003153827        40.78582        0.6785148       -83.80777                0               0                0               0
4.129                  0.7503096        117.6368     0.0005675013       -171.4029                0               0                0               0
                    0.0005674966       -171.4073        0.7308599        115.0702                0               0                0               0
                       0.6701506        42.28441      0.000334054        173.6813                0               0                0               0
                    0.0003181953         37.0341        0.6797729         -84.475                0               0                0               0
4.132                  0.7455484         117.006     0.0005762658       -171.1549                0               0                0               0
                    0.0005762416       -171.1596        0.7291715         114.724                0               0                0               0
                       0.6677126        41.00767     0.0003460694         170.635                0               0                0               0
                    0.0003094671        34.39861        0.6811735       -85.12905                0               0                0               0
4.135                  0.7389031          116.69     0.0005891753       -171.2685                0               0                0               0
                    0.0005891314       -171.2721        0.7275963        114.3923                0               0                0               0
                       0.6643923         40.0623     0.0003476473        167.3113                0               0                0               0
                    0.0002973555        34.18826        0.6827881       -85.78369                0               0                0               0
4.138                  0.7342161        116.6955     0.0006021816       -171.8874                0               0                0               0
                    0.0006021287        -171.889        0.7262461        114.0622                0               0                0               0
                       0.6634305        39.39552     0.0003406475        165.0412                0               0                0               0
                    0.0002934428        36.22849        0.6845405       -86.45225                0               0                0               0
4.141                  0.7340063        116.7924     0.0006115041       -172.8092                0               0                0               0
                    0.0006114571       -172.8089        0.7250676        113.7187                0               0                0               0
                       0.6664808        38.75525     0.0003326124        164.5976                0               0                0               0
                    0.0003040986        38.37646        0.6862606       -87.13855                0               0                0               0
4.144                  0.7375749        116.6767     0.0006160821       -173.6581                0               0                0               0
                    0.0006160507       -173.6569        0.7238819        113.3551                0               0                0               0
                       0.6723963        37.86914     0.0003323758        165.5327                0               0                0               0