! TOUCHSTONE file generated by CST MICROWAVE STUDIO
! Date and time: Sat Nov 30 13:11:01 2024
! Project name: test_tuning.cst
! Parameters = {airCoaxOuterDiameter=3; chamferAngle=45; chamferWidth=24; connectorLength=10; drillingHoleDiameter=4.1; feedLength=60; flareDiameter=130; flareLength=70; gratingDistance=0; gratingGap=1.90274; outletLength=30; polarizerLength=134; probe1Diameter=1.3; probe1Distance=17; probe1Length=12; probe2Diameter=1.3; probe2Distance=0; probe2Length=12; probeLength=12; smaInnerDiameter=1.3; smaOuterDiameter=4.1; transitionCoefficient=1.33; waveguideFeedLength=30; waveguideSide=50; waveguideThickness=3; wireCount=25; wireDiameter=1.17699}
! Header version: 2024
! Port assignment regex: !\s*Touchstone port\s*([0-9]+)\s*=\s*(CST MWS port|CST DES external port|CST DES block port)\s*(.+)\s* \(\"(.*)\"\)(\s*mode\s*([0-9]+))?.*
! Touchstone port assignment:
! Touchstone port 1 = CST MWS port 1 ("Input1")
! Touchstone port 2 = CST MWS port 2 ("Input2")
# GHz S MA R 50
4.6                     0.359696        -172.792        0.5730611        59.96561        0.5730609        59.96564        0.3596959       -172.7921
4.6014                 0.3641862       -173.2896        0.5733804        59.17178        0.5733803         59.1718        0.3641862       -173.2897
4.6028                 0.3686311       -173.7764        0.5736509        58.37282        0.5736508        58.37284        0.3686311       -173.7765
4.6042                 0.3730465       -174.2516        0.5738702        57.56802        0.5738702        57.56803        0.3730465       -174.2516
4.6056                 0.3774495       -174.7148        0.5740344        56.75668        0.5740344        56.75671        0.3774495       -174.7149
4.607                   0.381858       -175.1662        0.5741379        55.93817        0.5741379        55.93819         0.381858       -175.1662
4.6084                 0.3862905       -175.6062        0.5741734        55.11189        0.5741735        55.11192        0.3862906       -175.6063
4.6098                 0.3907654       -176.0358        0.5741326        54.27735        0.5741327        54.27738        0.3907655       -176.0358
4.6112                 0.3953006       -176.4562        0.5740053         53.4342        0.5740054        53.43423        0.3953008       -176.4563
4.6126                 0.3999134       -176.8692        0.5737806         52.5822        0.5737808        52.58222        0.3999135       -176.8693
4.614                  0.4046193       -177.2767        0.5734467        51.72126        0.5734469        51.72129        0.4046195       -177.2768
4.6154                 0.4094326       -177.6809        0.5729912        50.85151        0.5729914        50.85153        0.4094327        -177.681
4.6168                 0.4143651       -178.0843        0.5724013        49.97325        0.5724016        49.97326        0.4143653       -178.0844
4.6182                 0.4194267       -178.4895        0.5716644        49.08694        0.5716646        49.08697        0.4194268       -178.4896
4.6196                 0.4246242       -178.8992         0.570768        48.19329        0.5707683        48.19331        0.4246244       -178.8992
4.621                  0.4299618       -179.3159        0.5697005        47.29319        0.5697008         47.2932        0.4299621       -179.3159
4.6224                 0.4354411       -179.7423        0.5684511         46.3877        0.5684514        46.38771        0.4354413       -179.7424
4.6238                 0.4410603        179.8189        0.5670104         45.4781        0.5670106        45.47811        0.4410606        179.8189
4.6252                 0.4468151        179.3656        0.5653702        44.56582        0.5653705        44.56582        0.4468153        179.3656
4.6266                 0.4526981        178.8955        0.5635246        43.65245        0.5635249        43.65246        0.4526983        178.8955
4.628                  0.4586994        178.4068        0.5614694        42.73976        0.5614697        42.73976        0.4586996        178.4068
4.6294                 0.4648068        177.8979        0.5592026        41.82957        0.5592029        41.82957         0.464807        177.8979
4.6308                 0.4710059        177.3674        0.5567247        40.92387        0.5567249        40.92387        0.4710061        177.3674
4.6322                 0.4772803        176.8144        0.5540386        40.02469        0.5540388        40.02469        0.4772805        176.8144
4.6336                 0.4836125        176.2382        0.5511498         39.1341          0.55115        39.13409        0.4836127        176.2382
4.635                  0.4899834        175.6385        0.5480664        38.25419        0.5480666        38.25419        0.4899836        175.6384
4.6364                 0.4963735         175.015         0.544799        37.38706        0.5447992        37.38705        0.4963737         175.015
4.6378                 0.5027624        174.3682        0.5413609        36.53472         0.541361        36.53472        0.5027625        174.3681
4.6392                 0.5091298        173.6983        0.5377674        35.69916        0.5377675        35.69915          0.50913        173.6983
4.6406                 0.5154557        173.0062        0.5340363        34.88218        0.5340365        34.88217        0.5154559        173.0062
4.642                  0.5217204        172.2927        0.5301876        34.08549        0.5301876        34.08548        0.5217206        172.2927
4.6434                  0.527905        171.5589        0.5262426        33.31056        0.5262427        33.31056        0.5279052        171.5589
4.6448                 0.5339916        170.8061        0.5222246        32.55868        0.5222246        32.55868        0.5339917         170.806
4.6462                 0.5399635        170.0354        0.5181575        31.83086        0.5181576        31.83086        0.5399636        170.0354
4.6476                 0.5458052        169.2485        0.5140665        31.12782        0.5140665        31.12782        0.5458053        169.2484
4.649                  0.5515028        168.4467        0.5099769        30.44995        0.5099769        30.44995         0.551503        168.4466
4.6504                 0.5570443        167.6314        0.5059139        29.79731         0.505914        29.79731        0.5570443        167.6314
4.6518                 0.5624186        166.8044        0.5019024        29.16958        0.5019024        29.16959        0.5624187        166.8044
4.6532                  0.567617         165.967        0.4979663        28.56608        0.4979663        28.56609        0.5676172         165.967
4.6546                  0.572632        165.1207        0.4941281        27.98574        0.4941281        27.98574        0.5726322        165.1207
4.656                   0.577458         164.267        0.4904084         27.4271        0.4904084        27.42711        0.5774581         164.267
4.6574                 0.5820907        163.4071        0.4868257        26.88836        0.4868257        26.88837        0.5820908        163.4071
4.6588                 0.5865274        162.5423        0.4833959        26.36738         0.483396        26.36739        0.5865276        162.5423
4.6602                 0.5907669        161.6739         0.480132        25.86171        0.4801321        25.86171         0.590767        161.6739
4.6616                 0.5948087        160.8029        0.4770437        25.36865        0.4770437        25.36865        0.5948089        160.8029
4.663                  0.5986542        159.9303        0.4741373        24.88531        0.4741374        24.88531        0.5986543        159.9303
4.6644                 0.6023048         159.057        0.4714159        24.40865         0.471416        24.40866        0.6023051        159.0569
4.6658                 0.6057635        158.1837        0.4688788        23.93559        0.4688789        23.93559        0.6057636        158.1836
4.6672                 0.6090334        157.3111        0.4665219        23.46301         0.466522        23.46302        0.6090334        157.3111
4.6686                 0.6121178        156.4399        0.4643379        22.98791         0.464338        22.98791         0.612118        156.4398
4.67                   0.6150211        155.5704        0.4623163        22.50739        0.4623164        22.50739        0.6150212        155.5704
4.6714                  0.617747        154.7031        0.4604437        22.01877        0.4604438        22.01877        0.6177472        154.7031
4.6728                 0.6202998        153.8384        0.4587044        21.51964        0.4587045        21.51964           0.6203        153.8384
4.6742                 0.6226832        152.9764        0.4570806        21.00789        0.4570806        21.00789        0.6226835        152.9763
4.6756                 0.6249012        152.1173        0.4555527        20.48177        0.4555528        20.48177        0.6249014        152.1173
4.677                   0.626957        151.2613        0.4541003        19.93989        0.4541003        19.93988        0.6269572        151.2612
4.6784                 0.6288536        150.4084         0.452702        19.38126         0.452702        19.38125         0.628854        150.4084
4.6798                 0.6305939        149.5588        0.4513365        18.80527        0.4513365        18.80526        0.6305941        149.5588
4.6812                   0.63218        148.7126        0.4499825        18.21174        0.4499825        18.21173        0.6321803        148.7126
4.6826                 0.6336139        147.8696        0.4486197        17.60084        0.4486196        17.60083        0.6336141        147.8696
4.684                  0.6348969        147.0301        0.4472286        16.97309        0.4472286        16.97308        0.6348971        147.0301
4.6854                 0.6360303        146.1941        0.4457915        16.32936        0.4457915        16.32935        0.6360305        146.1941
4.6868                 0.6370151        145.3617        0.4442922        15.67082        0.4442922        15.67081        0.6370153        145.3617
4.6882                 0.6378518         144.533        0.4427169        14.99889        0.4427168        14.99888        0.6378521         144.533
4.6896                 0.6385413        143.7082        0.4410536         14.3152        0.4410535         14.3152        0.6385415        143.7082
4.691                   0.639084        142.8874        0.4392931        13.62158        0.4392929        13.62157        0.6390842        142.8874
4.6924                 0.6394809        142.0708        0.4374285        12.91996        0.4374284        12.91995        0.6394812        142.0708
4.6938                 0.6397329        141.2589        0.4354557        12.21237        0.4354556        12.21237        0.6397332        141.2589
4.6952                 0.6398412        140.4517         0.433373        11.50091        0.4333729        11.50091        0.6398415        140.4517
4.6966                 0.6398076        139.6497        0.4311812        10.78764        0.4311811        10.78764        0.6398079        139.6497
4.698                  0.6396344        138.8532        0.4288835        10.07459        0.4288833         10.0746        0.6396347        138.8532
4.6994                 0.6393243        138.0626        0.4264853        9.363723        0.4264851        9.363733        0.6393246        138.0626
4.7008                 0.6388807        137.2783        0.4239942        8.656849         0.423994        8.656861        0.6388811        137.2783
4.7022                  0.638308        136.5007        0.4214193        7.955635        0.4214191        7.955649        0.6383081        136.5007
4.7036                 0.6376105          135.73        0.4187716        7.261541        0.4187715        7.261559        0.6376109          135.73
4.705                  0.6367943        134.9668        0.4160633         6.57581        0.4160632         6.57583        0.6367945        134.9667
4.7064                 0.6358652        134.2112        0.4133072        5.899424        0.4133071        5.899447        0.6358656        134.2112
4.7078                 0.6348306        133.4637        0.4105171        5.233095         0.410517         5.23312        0.6348308        133.4637
4.7092                 0.6336974        132.7243        0.4077068        4.577238        0.4077067        4.577266        0.6336977        132.7243
4.7106                 0.6324741        131.9934          0.40489        3.931971        0.4048899        3.931998        0.6324744        131.9934
4.712                  0.6311688         131.271        0.4020801        3.297113        0.4020801        3.297144        0.6311691        131.2709
4.7134                 0.6297903         130.557        0.3992896        2.672169        0.3992896        2.672202        0.6297906         130.557
4.7148                 0.6283475        129.8514          0.39653        2.056366        0.3965301        2.056399        0.6283478        129.8514
4.7162                 0.6268489        129.1542        0.3938114         1.44866        0.3938114        1.448694        0.6268492        129.1542
4.7176                 0.6253034        128.4649        0.3911423       0.8477687        0.3911423       0.8478019        0.6253037        128.4649
4.719                  0.6237191        127.7832        0.3885293       0.2522018        0.3885294       0.2522343        0.6237194        127.7832
4.7204                 0.6221038        127.1087        0.3859771      -0.3396941        0.3859772      -0.3396628         0.622104        127.1087
4.7218                 0.6204645        126.4408        0.3834885      -0.9296915        0.3834886      -0.9296618        0.6204648        126.4408
4.7232                 0.6188075        125.7788        0.3810639       -1.519631        0.3810641       -1.519603        0.6188078        125.7788
4.7246                  0.617138        125.1221        0.3787021       -2.111368        0.3787022       -2.111342        0.6171382        125.1221
4.726                  0.6154601        124.4699        0.3763994       -2.706722        0.3763995         -2.7067        0.6154604        124.4699
4.7274                 0.6137768        123.8213        0.3741506       -3.307425        0.3741507       -3.307407         0.613777        123.8213
4.7288                 0.6120898        123.1755        0.3719487       -3.915073        0.3719488       -3.915058          0.61209        123.1755
4.7302                 0.6103995        122.5316        0.3697853        -4.53108        0.3697855       -4.531068        0.6103997        122.5316
4.7316                 0.6087047        121.8887         0.367651       -5.156645        0.3676511       -5.156637        0.6087049        121.8887
4.733                  0.6070034         121.246        0.3655351       -5.792719        0.3655354       -5.792713        0.6070036         121.246
4.7344                  0.605292        120.6026        0.3634269       -6.439975        0.3634271       -6.439974        0.6052922        120.6026
4.7358                 0.6035657        119.9577        0.3613149       -7.098812        0.3613151       -7.098813         0.603566        119.9577
4.7372                 0.6018189        119.3107        0.3591881       -7.769319        0.3591883       -7.769323        0.6018191        119.3107
4.7386                 0.6000448         118.661        0.3570356       -8.451305        0.3570358       -8.451313         0.600045         118.661
4.74                   0.5982359         118.008        0.3548473       -9.144289        0.3548475       -9.144299        0.5982362         118.008
4.7414                 0.5963844        117.3514        0.3526141       -9.847519        0.3526142       -9.847531        0.5963846        117.3514
4.7428                 0.5944815        116.6908        0.3503278          -10.56        0.3503279       -10.56001        0.5944817        116.6908
4.7442                 0.5925188        116.0261        0.3479818       -11.28051         0.347982       -11.28052        0.5925191        116.0261
4.7456                 0.5904877        115.3573        0.3455712       -12.00764        0.3455713       -12.00766        0.5904879        115.3573
4.747                  0.5883797        114.6845        0.3430925       -12.73982        0.3430926       -12.73984        0.5883799        114.6845
4.7484                  0.586187        114.0079        0.3405442       -13.47539        0.3405443       -13.47541        0.5861872         114.008
4.7498                 0.5839022        113.3279        0.3379264       -14.21258        0.3379264        -14.2126        0.5839024        113.3279
4.7512                 0.5815188         112.645        0.3352411       -14.94962        0.3352411       -14.94964        0.5815191         112.645
4.7526                 0.5790314        111.9596        0.3324922       -15.68474        0.3324922       -15.68476        0.5790316        111.9596
4.754                  0.5764354        111.2725        0.3296852       -16.41625        0.3296852       -16.41627        0.5764356        111.2725
4.7554                 0.5737276        110.5843         0.326827       -17.14254         0.326827       -17.14257        0.5737279        110.5843
4.7568                 0.5709063        109.8958        0.3239262       -17.86219        0.3239261       -17.86221        0.5709066        109.8958
4.7582                 0.5679708         109.208        0.3209923       -18.57394        0.3209923       -18.57397         0.567971         109.208
4.7596                 0.5649219        108.5214        0.3180361       -19.27681         0.318036       -19.27683        0.5649221        108.5214
4.761                  0.5617618        107.8372        0.3150687       -19.97006        0.3150687       -19.97008        0.5617621        107.8372
4.7624                 0.5584941        107.1558         0.312102       -20.65328         0.312102        -20.6533        0.5584944        107.1559
4.7638                 0.5551236        106.4783        0.3091478       -21.32641        0.3091478       -21.32643        0.5551238        106.4783
4.7652                  0.551656        105.8052        0.3062179       -21.98972        0.3062178       -21.98973        0.5516562        105.8052
4.7666                 0.5480981        105.1372        0.3033232       -22.64388        0.3033232       -22.64389        0.5480984        105.1372
4.768                  0.5444579        104.4747        0.3004744       -23.28991        0.3004744       -23.28992        0.5444581        104.4748
4.7694                 0.5407435        103.8182        0.2976806       -23.92921        0.2976806       -23.92922        0.5407437        103.8183
4.7708                 0.5369637         103.168          0.29495       -24.56351        0.2949499       -24.56353        0.5369639         103.168
4.7722                 0.5331271         102.524        0.2922888       -25.19488        0.2922887        -25.1949        0.5331273         102.524
4.7736                 0.5292428        101.8862        0.2897017       -25.82564        0.2897016       -25.82567        0.5292431        101.8863
4.775                  0.5253193        101.2546        0.2871914       -26.45836        0.2871913       -26.45838        0.5253196        101.2546
4.7764                 0.5213646        100.6286        0.2847586       -27.09574        0.2847585       -27.09576        0.5213649        100.6286
4.7778                 0.5173858        100.0078        0.2824021       -27.74061         0.282402       -27.74063        0.5173861        100.0079
4.7792                 0.5133892         99.3916        0.2801185       -28.39582        0.2801184       -28.39584        0.5133894         99.3916
4.7806                 0.5093798        98.77904        0.2779026       -29.06418        0.2779025       -29.06421          0.50938        98.77907
4.782                  0.5053611         98.1693        0.2757473       -29.74842        0.2757473       -29.74844        0.5053614        98.16932
4.7834                 0.5013355        97.56135        0.2736442       -30.45106         0.273644       -30.45108        0.5013358        97.56135
4.7848                 0.4973034        96.95408         0.271583       -31.17441        0.2715829       -31.17444        0.4973036        96.95411
4.7862                 0.4932637         96.3464        0.2695528       -31.92052        0.2695526       -31.92054         0.493264         96.3464
4.7876                 0.4892136        95.73709        0.2675415       -32.69106        0.2675414       -32.69109        0.4892138        95.73712
4.789                  0.4851486        95.12506        0.2655369       -33.48743        0.2655367       -33.48746        0.4851488        95.12509
4.7904                 0.4810627        94.50918        0.2635263       -34.31058        0.2635261       -34.31061        0.4810629        94.50917
4.7918                 0.4769482         93.8884        0.2614971       -35.16114        0.2614969       -35.16117        0.4769485        93.88843
4.7932                 0.4727964        93.26184        0.2594374       -36.03935        0.2594372       -36.03937        0.4727967        93.26186
4.7946                 0.4685973         92.6287        0.2573357       -36.94506        0.2573355       -36.94508        0.4685975        92.62872
4.796                  0.4643397        91.98832        0.2551816       -37.87781        0.2551814       -37.87783          0.46434        91.98835
4.7974                 0.4600122        91.34024         0.252966       -38.83682        0.2529658       -38.83684        0.4600124        91.34027
4.7988                 0.4556026        90.68425         0.250681       -39.82104        0.2506808       -39.82104        0.4556029        90.68428
4.8002                 0.4510987        90.02029        0.2483204       -40.82915        0.2483202       -40.82917         0.451099        90.02029
4.8016                 0.4464884        89.34859        0.2458796        -41.8597        0.2458793       -41.85971        0.4464886        89.34859
4.803                    0.44176        88.66955        0.2433557       -42.91107        0.2433554       -42.91107        0.4417603        88.66956
4.8044                 0.4369025        87.98388        0.2407476       -43.98155        0.2407473       -43.98156        0.4369028        87.98388
4.8058                 0.4319058        87.29248        0.2380561       -45.06945        0.2380558       -45.06944        0.4319061        87.29251
4.8072                  0.426761        86.59654        0.2352836       -46.17306        0.2352833       -46.17305        0.4267613        86.59656
4.8086                 0.4214606        85.89743        0.2324343       -47.29082         0.232434       -47.29081        0.4214609        85.89746
4.81                   0.4159987        85.19679        0.2295138       -48.42131        0.2295134       -48.42129        0.4159989        85.19681
4.8114                 0.4103711        84.49644         0.226529       -49.56333        0.2265286       -49.56331        0.4103714        84.49646
4.8128                 0.4045756        83.79841        0.2234881       -50.71599        0.2234878       -50.71596        0.4045759        83.79842
4.8142                 0.3986119        83.10484        0.2204003       -51.87876           0.2204       -51.87874        0.3986121        83.10487
4.8156                 0.3924816        82.41815        0.2172756       -53.05152        0.2172753       -53.05148        0.3924819        82.41816
4.817                  0.3861887        81.74075         0.214124       -54.23462        0.2141237       -54.23458        0.3861889        81.74078
4.8184                 0.3797387        81.07527        0.2109561       -55.42897        0.2109558       -55.42893        0.3797389        81.07527
4.8198                 0.3731394         80.4243        0.2077822       -56.63604        0.2077819       -56.63599        0.3731395        80.42432
4.8212                 0.3664003        79.79059        0.2046122       -57.85792        0.2046119       -57.85787        0.3664004         79.7906
4.8226                 0.3595326        79.17682         0.201455       -59.09739        0.2014548       -59.09733        0.3595328        79.17684
4.824                   0.352549         78.5857         0.198319       -60.35786        0.1983187        -60.3578        0.3525491        78.58573
4.8254                 0.3454634        78.01989        0.1952108       -61.64341        0.1952106       -61.64336        0.3454636        78.01992
4.8268                 0.3382909        77.48194        0.1921358       -62.95882        0.1921356       -62.95875         0.338291        77.48197
4.8282                  0.331047        76.97433        0.1890977       -64.30946        0.1890976       -64.30939        0.3310471        76.97435
4.8296                 0.3237479        76.49936        0.1860985       -65.70134        0.1860983       -65.70128         0.323748        76.49937
4.831                  0.3164097        76.05916        0.1831381       -67.14098        0.1831379       -67.14092        0.3164098        76.05919
4.8324                 0.3090485        75.65572        0.1802147       -68.63543        0.1802146       -68.63535        0.3090486        75.65574
4.8338                 0.3016796        75.29077        0.1773247       -70.19212        0.1773246       -70.19206        0.3016797        75.29079
4.8352                 0.2943174        74.96585        0.1744629       -71.81886        0.1744628       -71.81878        0.2943174        74.96586
4.8366                 0.2869751        74.68224        0.1716225       -73.52373        0.1716224       -73.52367        0.2869751        74.68228
4.838                  0.2796643        74.44111        0.1687957       -75.31506        0.1687956         -75.315        0.2796643        74.44114
4.8394                 0.2723949        74.24339        0.1659736       -77.20134        0.1659736       -77.20129        0.2723949        74.24342
4.8408                 0.2651747         74.0899        0.1631471       -79.19125         0.163147       -79.19118        0.2651747        74.08994
4.8422                 0.2580092        73.98144        0.1603066       -81.29356        0.1603066       -81.29349        0.2580093        73.98147
4.8436                  0.250902        73.91884        0.1574432       -83.51721        0.1574431       -83.51716         0.250902        73.91886
4.845                  0.2438539        73.90305        0.1545486       -85.87128        0.1545485       -85.87123         0.243854        73.90309
4.8464                 0.2368639        73.93537        0.1516157       -88.36509        0.1516156       -88.36504         0.236864        73.93542
4.8478                 0.2299289        74.01756        0.1486394       -91.00818        0.1486393       -91.00814        0.2299289        74.01761
4.8492                 0.2230439        74.15203        0.1456165       -93.81043        0.1456165       -93.81038        0.2230439        74.15209
4.8506                 0.2162027         74.3421        0.1425469       -96.78207        0.1425468       -96.78201        0.2162028        74.34215
4.852                  0.2093984        74.59224        0.1394332       -99.93379        0.1394332       -99.93375        0.2093985         74.5923
4.8534                 0.2026239        74.90837        0.1362821       -103.2767         0.136282       -103.2767        0.2026239        74.90844
4.8548                 0.1958724        75.29819         0.133104       -106.8225         0.133104       -106.8225        0.1958724        75.29826
4.8562                 0.1891389        75.77155        0.1299141       -110.5832        0.1299141       -110.5832         0.189139        75.77163
4.8576                 0.1824209        76.34081        0.1267324       -114.5709        0.1267323       -114.5709         0.182421        76.34088
4.859                  0.1757195        77.02132        0.1235838       -118.7978        0.1235837       -118.7977        0.1757196         77.0214
4.8604                  0.169041        77.83181         0.120499       -123.2753        0.1204989       -123.2753         0.169041        77.83191
4.8618                  0.162398        78.79491        0.1175139       -128.0138        0.1175138       -128.0138        0.1623981        78.79502
4.8632                  0.155812        79.93748        0.1146697       -133.0214        0.1146695       -133.0214        0.1558121        79.93759
4.8646                 0.1493146        81.29091        0.1120123       -138.3025        0.1120122       -138.3025        0.1493147        81.29103
4.866                  0.1429502        82.89105        0.1095918        -143.857        0.1095917        -143.857        0.1429503        82.89117
4.8674                 0.1367781        84.77769        0.1074605        -149.678        0.1074603        -149.678        0.1367783        84.77781
4.8688                 0.1308756        86.99301        0.1056714       -155.7508        0.1056713       -155.7508        0.1308757        86.99314
4.8702                 0.1253392        89.57877        0.1042758       -162.0512        0.1042756       -162.0512        0.1253394        89.57891
4.8716                 0.1202867        92.57125        0.1033201       -168.5455        0.1033199       -168.5455        0.1202869        92.57139