! TOUCHSTONE file generated by CST MICROWAVE STUDIO
! Date and time: Sat Nov 30 13:10:56 2024
! Project name: test_tuning.cst
! Parameters = {airCoaxOuterDiameter=3; chamferAngle=45; chamferWidth=24; connectorLength=10; drillingHoleDiameter=4.1; feedLength=60; flareDiameter=130; flareLength=70; gratingDistance=0; gratingGap=1.90274; outletLength=30; polarizerLength=134; probe1Diameter=1.3; probe1Distance=9; probe1Length=12; probe2Diameter=1.3; probe2Distance=0; probe2Length=12; probeLength=12; smaInnerDiameter=1.3; smaOuterDiameter=4.1; transitionCoefficient=1.33; waveguideFeedLength=30; waveguideSide=50; waveguideThickness=3; wireCount=25; wireDiameter=1.17699}
! Header version: 2024
! Port assignment regex: !\s*Touchstone port\s*([0-9]+)\s*=\s*(CST MWS port|CST DES external port|CST DES block port)\s*(.+)\s* \(\"(.*)\"\)(\s*mode\s*([0-9]+))?.*
! Touchstone port assignment:
! Touchstone port 1 = CST MWS port 1 ("Input1")
! Touchstone port 2 = CST MWS port 2 ("Input2")
# GHz S MA R 50
4.6                    0.2671489        19.05727         0.584571        99.82339        0.5845707        99.82308        0.2671459        19.05611
4.6014                 0.2589427        17.57825        0.5910408        98.92031        0.5910403        98.92001        0.2589395        17.57711
4.6028                 0.2504438        15.97712        0.5977791        97.99003        0.5977784        97.98974        0.2504405          15.976
4.6042                 0.2416187        14.23984        0.6047773        97.02858        0.6047764        97.02828        0.2416154        14.23873
4.6056                 0.2324371        12.35036        0.6120203        96.03217        0.6120192         96.0319        0.2324337        12.34927
4.607                  0.2228731        10.28988        0.6194861        94.99738        0.6194848        94.99712        0.2228697        10.28881
4.6084                 0.2129075        8.035751        0.6271461        93.92111        0.6271448        93.92085        0.2129041        8.034691
4.6098                 0.2025292        5.559968        0.6349663         92.8007         0.634965        92.80047        0.2025258        5.558915
4.6112                 0.1917375        2.827055         0.642907        91.63403        0.6429055        91.63381        0.1917342           2.826
4.6126                 0.1805455      -0.2088938        0.6509237        90.41947        0.6509221        90.41927        0.1805423      -0.2099614
4.614                  0.1689841       -3.608433         0.658968        89.15592        0.6589663        89.15573         0.168981       -3.609524
4.6154                 0.1571077       -7.452776        0.6669885        87.84279        0.6669868        87.84261        0.1571048       -7.453907
4.6168                 0.1450035       -11.85233        0.6749311           86.48        0.6749293        86.47985        0.1450008       -11.85352
4.6182                 0.1328048       -16.95848        0.6827405        85.06801        0.6827388        85.06788        0.1328023       -16.95975
4.6196                 0.1207127       -22.97854        0.6903609        83.60766         0.690359        83.60752        0.1207105       -22.97993
4.621                  0.1090288       -30.19078        0.6977361        82.10021        0.6977343        82.10008        0.1090269       -30.19231
4.6224                0.09820236       -38.94593        0.7048113        80.54731        0.7048095        80.54719       0.09820086       -38.94763
4.6238                0.08888545       -49.61738        0.7115333         78.9509        0.7115315        78.95081       0.08888445       -49.61925
4.6252                0.08195772       -62.42739        0.7178513        77.31323        0.7178494        77.31315       0.08195728        -62.4294
4.6266                0.07842273       -77.10975        0.7237168        75.63674        0.7237151        75.63665       0.07842292       -77.11173
4.628                 0.07908104       -92.64291        0.7290854        73.92407        0.7290838        73.92399       0.07908179       -92.64467
4.6294                0.08413055       -107.5629        0.7339162        72.17798        0.7339145        72.17791       0.08413175       -107.5643
4.6308                0.09309758       -120.7585        0.7381723        70.40139        0.7381707        70.40132       0.09309907       -120.7595
4.6322                 0.1051661       -131.8753        0.7418213        68.59725        0.7418198        68.59719        0.1051677        -131.876
4.6336                  0.119531       -141.0948        0.7448356        66.76857        0.7448341         66.7685        0.1195327       -141.0953
4.635                  0.1355518       -148.7847        0.7471922        64.91833        0.7471907        64.91829        0.1355535        -148.785
4.6364                 0.1527592       -155.3031        0.7488726        63.04963        0.7488712        63.04958        0.1527608       -155.3033
4.6378                 0.1708156       -160.9384        0.7498635        61.16543        0.7498621        61.16538        0.1708172       -160.9384
4.6392                 0.1894736        -165.906        0.7501561        59.26869        0.7501547        59.26865        0.1894751        -165.906
4.6406                 0.2085461       -170.3636        0.7497461        57.36234        0.7497449        57.36229        0.2085475       -170.3636
4.642                  0.2278861       -174.4258        0.7486342        55.44921        0.7486329        55.44918        0.2278875       -174.4258
4.6434                  0.247374       -178.1766        0.7468245        53.53213        0.7468233        53.53209        0.2473753       -178.1765
4.6448                 0.2669092        178.3221         0.744326        51.61377        0.7443248        51.61374        0.2669104        178.3221
4.6462                 0.2864048        175.0237        0.7411512        49.69678          0.74115        49.69675         0.286406        175.0238
4.6476                 0.3057845        171.8933        0.7373161        47.78371        0.7373149        47.78367        0.3057857        171.8934
4.649                  0.3249803         168.904        0.7328401        45.87699        0.7328391        45.87696        0.3249814        168.9041
4.6504                 0.3439306        166.0352         0.727746        43.97901        0.7277449        43.97898        0.3439317        166.0353
4.6518                 0.3625801        163.2707        0.7220588        42.09206        0.7220577        42.09203        0.3625811        163.2708
4.6532                 0.3808783        160.5979        0.7158061        40.21829        0.7158051        40.21826        0.3808792         160.598
4.6546                 0.3987796        158.0067         0.709018         38.3598         0.709017        38.35979        0.3987806        158.0068
4.656                  0.4162431        155.4892        0.7017262        36.51859        0.7017252        36.51857         0.416244        155.4893
4.6574                  0.433232        153.0391         0.693964        34.69651         0.693963         34.6965        0.4332329        153.0392
4.6588                 0.4497136        150.6513        0.6857661        32.89537        0.6857651        32.89536        0.4497144        150.6514
4.6602                 0.4656595        148.3218         0.677168        31.11682        0.6771672        31.11681        0.4656604        148.3219
4.6616                 0.4810453        146.0472        0.6682062         29.3624        0.6682053         29.3624        0.4810461        146.0473
4.663                  0.4958505        143.8251        0.6589174        27.63356        0.6589165        27.63356        0.4958514        143.8252
4.6644                 0.5100587        141.6532        0.6493384        25.93158        0.6493376        25.93159        0.5100595        141.6532
4.6658                 0.5236573        139.5299         0.639506        24.25765        0.6395052        24.25765        0.5236581        139.5299
4.6672                 0.5366373        137.4538        0.6294565        22.61277        0.6294557        22.61278        0.5366381        137.4539
4.6686                 0.5489938        135.4238        0.6192255        20.99784        0.6192247        20.99785        0.5489947        135.4239
4.67                   0.5607253        133.4391        0.6088476        19.41358        0.6088468         19.4136        0.5607261        133.4392
4.6714                 0.5718336         131.499        0.5983561        17.86057        0.5983554        17.86059        0.5718344         131.499
4.6728                 0.5823241        129.6027        0.5877833        16.33921        0.5877825        16.33923        0.5823249        129.6027
4.6742                 0.5922052        127.7497        0.5771591        14.84976        0.5771585        14.84978        0.5922061        127.7497
4.6756                 0.6014885        125.9395        0.5665124        13.39229        0.5665118        13.39231        0.6014892        125.9396
4.677                  0.6101877        124.1717        0.5558693        11.96673        0.5558687        11.96676        0.6101884        124.1718
4.6784                 0.6183195        122.4458        0.5452541        10.57286        0.5452536        10.57289        0.6183202        122.4459
4.6798                 0.6259025        120.7612        0.5346888        9.210297        0.5346883        9.210335        0.6259032        120.7613
4.6812                 0.6329573        119.1175        0.5241929        7.878537        0.5241925        7.878576         0.632958        119.1175
4.6826                 0.6395059        117.5139        0.5137836        6.576948        0.5137832         6.57699        0.6395067        117.5139
4.684                  0.6455717        115.9499        0.5034756        5.304802        0.5034754        5.304846        0.6455723        115.9499
4.6854                 0.6511786        114.4246        0.4932815         4.06129        0.4932812        4.061336        0.6511793        114.4247
4.6868                 0.6563516        112.9374         0.483211        2.845547        0.4832108        2.845595        0.6563522        112.9374
4.6882                 0.6611153        111.4872        0.4732724        1.656677        0.4732722        1.656725         0.661116        111.4872
4.6896                 0.6654948        110.0731        0.4634714       0.4937778        0.4634713       0.4938274        0.6654955        110.0732
4.691                  0.6695145        108.6941        0.4538123      -0.6440269        0.4538122       -0.643977        0.6695152        108.6942
4.6924                 0.6731982        107.3491        0.4442974       -1.757565        0.4442973       -1.757515        0.6731989        107.3492
4.6938                 0.6765686        106.0369         0.434928        -2.84759         0.434928       -2.847541        0.6765692        106.0369
4.6952                 0.6796476        104.7562        0.4257041       -3.914758        0.4257041        -3.91471        0.6796482        104.7563
4.6966                 0.6824554        103.5059         0.416625       -4.959606        0.4166251       -4.959558         0.682456        103.5059
4.698                  0.6850113        102.2846        0.4076894       -5.982535        0.4076895        -5.98249        0.6850119        102.2847
4.6994                 0.6873324        101.0912        0.3988956        -6.98381        0.3988957       -6.983765         0.687333        101.0912
4.7008                 0.6894347        99.92418         0.390242        -7.96355        0.3902421       -7.963495        0.6894353        99.92421
4.7022                 0.6913327        98.78249         0.381727        -8.92167        0.3817272       -8.921617        0.6913332        98.78252
4.7036                 0.6930387        97.66487        0.3733496       -9.858041        0.3733498       -9.857985        0.6930393         97.6649
4.705                  0.6945642        96.57018        0.3651092       -10.77231        0.3651094       -10.77223        0.6945648        96.57017
4.7064                 0.6959193         95.4973        0.3570058       -11.66402         0.357006         -11.664        0.6959198        95.49731
4.7078                 0.6971123        94.44524        0.3490403        -12.5327        0.3490405       -12.53267        0.6971129        94.44526
4.7092                 0.6981511        93.41305        0.3412144       -13.37777        0.3412146       -13.37774        0.6981516        93.41308
4.7106                 0.6990422         92.3999        0.3335304       -14.19861        0.3335306       -14.19859        0.6990427         92.3999
4.712                  0.6997919        91.40498        0.3259916       -14.99462        0.3259918       -14.99461        0.6997924        91.40501
4.7134                 0.7004057         90.4277        0.3186019        -15.7653        0.3186021       -15.76528        0.7004061         90.4277
4.7148                 0.7008886        89.46734        0.3113658       -16.51021         0.311366        -16.5102        0.7008889        89.46734
4.7162                  0.701246        88.52347         0.304288       -17.22908        0.3042882       -17.22907        0.7012463         88.5235
4.7176                 0.7014828        87.59563        0.2973737       -17.92185         0.297374       -17.92184        0.7014831        87.59566
4.719                  0.7016045        86.68339         0.290628       -18.58866        0.2906282       -18.58865        0.7016048        86.68345
4.7204                 0.7016167        85.78649        0.2840556       -19.22997        0.2840558       -19.22997         0.701617        85.78649
4.7218                 0.7015253        84.90452        0.2776609       -19.84653        0.2776611       -19.84652        0.7015255        84.90458
4.7232                 0.7013367         84.0373        0.2714474       -20.43942        0.2714476       -20.43942        0.7013369         84.0373
4.7246                 0.7010578        83.18448        0.2654178       -21.01006         0.265418       -21.01006        0.7010579        83.18451
4.726                  0.7006959        82.34584        0.2595736       -21.56024        0.2595738       -21.56024         0.700696        82.34589
4.7274                 0.7002586        81.52105        0.2539147       -22.09205        0.2539149       -22.09205        0.7002587        81.52105
4.7288                  0.699754        80.70979        0.2484398       -22.60791          0.24844       -22.60791        0.6997541        80.70979
4.7302                 0.6991903        79.91167        0.2431458       -23.11047        0.2431459       -23.11047        0.6991903         79.9117
4.7316                 0.6985758        79.12629        0.2380277        -23.6026        0.2380279        -23.6026        0.6985756        79.12632
4.733                  0.6979185        78.35318        0.2330791       -24.08731        0.2330793       -24.08732        0.6979185         78.3532
4.7344                 0.6972266        77.59174        0.2282918       -24.56766         0.228292       -24.56766        0.6972266        77.59177
4.7358                 0.6965077        76.84145        0.2236561       -25.04666        0.2236563       -25.04666        0.6965077         76.8415
4.7372                 0.6957688        76.10155        0.2191609       -25.52721        0.2191611       -25.52722        0.6957688        76.10158
4.7386                 0.6950162        75.37139        0.2147939       -26.01201        0.2147941       -26.01202        0.6950161        75.37141
4.74                   0.6942552        74.65012        0.2105421       -26.50344        0.2105422       -26.50345        0.6942551        74.65015
4.7414                 0.6934902        73.93693        0.2063916        -27.0035        0.2063917       -27.00351        0.6934902        73.93699
4.7428                 0.6927245          73.231        0.2023284       -27.51375        0.2023286       -27.51375        0.6927246        73.23106
4.7442                 0.6919602        72.53144        0.1983386       -28.03522        0.1983388       -28.03523        0.6919602        72.53147
4.7456                 0.6911979        71.83733        0.1944086       -28.56842        0.1944088       -28.56843         0.691198        71.83741
4.747                   0.690437        71.14787        0.1905254       -29.11323        0.1905256       -29.11325        0.6904372        71.14793
4.7484                 0.6896758         70.4622        0.1866772       -29.66897        0.1866774       -29.66899        0.6896759        70.46228
4.7498                 0.6889112        69.77955        0.1828534       -30.23433        0.1828535       -30.23435        0.6889114        69.77961
4.7512                 0.6881388        69.09918        0.1790448       -30.80742         0.179045       -30.80745        0.6881391        69.09923
4.7526                 0.6873536        68.42044        0.1752441       -31.38579        0.1752443       -31.38582        0.6873539        68.42049
4.754                  0.6865493         67.7428        0.1714459       -31.96646         0.171446        -31.9665        0.6865498        67.74286
4.7554                 0.6857193        67.06578        0.1676466       -32.54597        0.1676467         -32.546        0.6857198        67.06586
4.7568                 0.6848562        66.38907        0.1638449       -33.12045         0.163845       -33.12049        0.6848567        66.38913
4.7582                 0.6839524        65.71244        0.1600414       -33.68569        0.1600416       -33.68573        0.6839531         65.7125
4.7596                 0.6830006        65.03575        0.1562391       -34.23723        0.1562393       -34.23726        0.6830013        65.03586
4.761                  0.6819931        64.35909        0.1524427       -34.77042        0.1524428       -34.77046        0.6819939        64.35915
4.7624                  0.680923        63.68252        0.1486588       -35.28059        0.1486589       -35.28063         0.680924         63.6826
4.7638                 0.6797843        63.00636        0.1448959       -35.76314         0.144896       -35.76319        0.6797852        63.00641
4.7652                 0.6785711        62.33083         0.141164       -36.21367        0.1411641       -36.21371        0.6785722        62.33092
4.7666                 0.6772793        61.65648        0.1374741       -36.62814        0.1374742       -36.62819        0.6772803        61.65654
4.768                  0.6759055        60.98376        0.1338383       -37.00305        0.1338384       -37.00311        0.6759066        60.98379
4.7694                 0.6744478        60.31318        0.1302696       -37.33559        0.1302697       -37.33565        0.6744489        60.31324
4.7708                 0.6729057        59.64543        0.1267806       -37.62384        0.1267807       -37.62389        0.6729069        59.64545
4.7722                 0.6712801        58.98104        0.1233843       -37.86692        0.1233844       -37.86697        0.6712813        58.98107
4.7736                 0.6695736        58.32067        0.1200927       -38.06517        0.1200928       -38.06523        0.6695748        58.32069
4.775                  0.6677899        57.66488         0.116917       -38.22032        0.1169171       -38.22037        0.6677911        57.66489
4.7764                 0.6659342        57.01423        0.1138667       -38.33554        0.1138668       -38.33559        0.6659354        57.01423
4.7778                 0.6640131        56.36919        0.1109495       -38.41552        0.1109496       -38.41558        0.6640144        56.36918
4.7792                 0.6620341        55.73015        0.1081707       -38.46647        0.1081708       -38.46652        0.6620353        55.73012
4.7806                 0.6600058        55.09737        0.1055332       -38.49599        0.1055332       -38.49604        0.6600069        55.09735
4.782                  0.6579372        54.47106        0.1030368       -38.51296        0.1030368         -38.513        0.6579384        54.47103
4.7834                 0.6558382        53.85123        0.1006784       -38.52721        0.1006785       -38.52726        0.6558394        53.85119
4.7848                 0.6537185         53.2378       0.09845216       -38.54932       0.09845224       -38.54937        0.6537196        53.23776
4.7862                 0.6515878        52.63051        0.0963491       -38.59017       0.09634918       -38.59021        0.6515888        52.63046
4.7876                 0.6494556        52.02895       0.09435774       -38.66056       0.09435781       -38.66061        0.6494566         52.0289
4.789                  0.6473305        51.43259       0.09246429       -38.77087       0.09246438       -38.77092        0.6473314        51.43253
4.7904                 0.6452202        50.84075       0.09065313       -38.93065       0.09065322       -38.93071         0.645221        50.84069
4.7918                 0.6431314        50.25261       0.08890727       -39.14835       0.08890737       -39.14841        0.6431322        50.25254
4.7932                 0.6410691        49.66725       0.08720892       -39.43106       0.08720903       -39.43111        0.6410699        49.66718
4.7946                 0.6390369        49.08365       0.08554002       -39.78431       0.08554013       -39.78437        0.6390374        49.08358
4.796                  0.6370363        48.50071       0.08388277       -40.21203       0.08388287        -40.2121        0.6370369        48.50064
4.7974                 0.6350672        47.91731       0.08222012       -40.71653       0.08222022       -40.71661        0.6350677        47.91724
4.7988                 0.6331276        47.33228       0.08053624        -41.2985       0.08053634        -41.2986         0.633128        47.33221
4.8002                 0.6312132        46.74447       0.07881692       -41.95715       0.07881701       -41.95726        0.6312136        46.74439
4.8016                  0.629318        46.15277       0.07704978       -42.69026       0.07704987       -42.69038        0.6293182         46.1527
4.803                  0.6274339        45.55613       0.07522463        -43.4944       0.07522471       -43.49452        0.6274342        45.55606
4.8044                 0.6255515        44.95361       0.07333354       -44.36503       0.07333361       -44.36517        0.6255517        44.95354
4.8058                 0.6236595        44.34437       0.07137102       -45.29668       0.07137108       -45.29683        0.6236597        44.34429
4.8072                 0.6217455        43.72772       0.06933404       -46.28309       0.06933409       -46.28326        0.6217457        43.72764
4.8086                 0.6197961        43.10313         0.067222       -47.31735       0.06722204       -47.31752        0.6197961        43.10306
4.81                    0.617797        42.47026        0.0650367       -48.39206       0.06503674       -48.39224        0.6177971        42.47019
4.8114                 0.6157336        41.82892       0.06278228       -49.49945        0.0627823       -49.49964        0.6157337        41.82886
4.8128                 0.6135914        41.17917         0.060465       -50.63157         0.060465       -50.63177        0.6135913        41.17911
4.8142                 0.6113557        40.52122       0.05809314       -51.78042       0.05809312       -51.78063        0.6113557        40.52117
4.8156                 0.6090128         39.8555       0.05567679       -52.93822       0.05567676       -52.93844        0.6090128        39.85544
4.817                  0.6065496        39.18262       0.05322762       -54.09756       0.05322757       -54.09779        0.6065496        39.18256
4.8184                 0.6039544        38.50336       0.05075859       -55.25186       0.05075852        -55.2521        0.6039544        38.50331
4.8198                 0.6012168        37.81869       0.04828367        -56.3957       0.04828358       -56.39594        0.6012168        37.81864
4.8212                 0.5983282         37.1297       0.04581753       -57.52539       0.04581742       -57.52563        0.5983281        37.12966
4.8226                 0.5952818        36.43763       0.04337515       -58.63969       0.04337504       -58.63993        0.5952818        36.43758
4.824                  0.5920729         35.7438       0.04097149       -59.74069       0.04097137       -59.74092        0.5920729        35.74374
4.8254                  0.588699        35.04961       0.03862101       -60.83495       0.03862087       -60.83517        0.5886989        35.04955
4.8268                 0.5851596        34.35653       0.03633727        -61.9348       0.03633711       -61.93502        0.5851596        34.35647
4.8282                 0.5814567        33.66601       0.03413255       -63.05998       0.03413238       -63.06018        0.5814566        33.66596
4.8296                 0.5775942        32.97954       0.03201745       -64.23943       0.03201727       -64.23959        0.5775941        32.97948
4.831                  0.5735783        32.29852        0.0300007       -65.51324       0.03000051       -65.51341        0.5735783        32.29846
4.8324                  0.569417        31.62432         0.028089       -66.93483       0.02808881       -66.93496         0.569417        31.62426
4.8338                 0.5651201        30.95819       0.02628731       -68.57292       0.02628712         -68.573          0.56512        30.95813
4.8352                 0.5606988        30.30125        0.0245994       -70.51342       0.02459921       -70.51347        0.5606987        30.30118
4.8366                 0.5561655        29.65446       0.02302901       -72.86085       0.02302882       -72.86087        0.5561653        29.65439
4.838                  0.5515334        29.01862       0.02158167       -75.73863       0.02158149       -75.73861        0.5515332        29.01854
4.8394                 0.5468164         28.3943       0.02026718       -79.28705         0.020267         -79.287        0.5468162        28.39423
4.8408                 0.5420284        27.78188       0.01910289        -83.6566       0.01910271       -83.65649        0.5420281         27.7818
4.8422                  0.537183         27.1815       0.01811731       -88.99194       0.01811715       -88.99183        0.5371827        27.18142
4.8436                 0.5322933        26.59306       0.01735328       -95.40152       0.01735312       -95.40139        0.5322929        26.59298
4.845                  0.5273711        26.01624       0.01686875       -102.9089       0.01686859       -102.9087        0.5273707        26.01616
4.8464                 0.5224272        25.45049       0.01673289       -111.3964       0.01673273       -111.3962        0.5224267        25.45041
4.8478                 0.5174701        24.89504       0.01701576       -120.5736        0.0170156       -120.5735        0.5174696        24.89496
4.8492                 0.5125066        24.34894       0.01777374       -130.0141       0.01777358        -130.014        0.5125061        24.34886
4.8506                 0.5075411        23.81109       0.01903752       -139.2654       0.01903736       -139.2653        0.5075405        23.81101
4.852                  0.5025751        23.28026       0.02080924       -147.9734       0.02080908       -147.9733        0.5025745        23.28018
4.8534                 0.4976079        22.75515       0.02306897       -155.9458       0.02306882       -155.9458        0.4976072        22.75507
4.8548                 0.4926355        22.23445       0.02578487       -163.1386       0.02578472       -163.1385        0.4926347        22.23437
4.8562                 0.4876515        21.71685       0.02892154       -169.6041       0.02892139        -169.604        0.4876506        21.71678
4.8576                 0.4826465        21.20116       0.03244473       -175.4396       0.03244458       -175.4395        0.4826456         21.2011
4.859                  0.4776087        20.68635       0.03632301        179.2474       0.03632287        179.2474        0.4776078        20.68629
4.8604                 0.4725242        20.17158        0.0405278        174.3566       0.04052766        174.3566        0.4725232        20.17152
4.8618                 0.4673766         19.6563       0.04503267        169.8021       0.04503254        169.8022        0.4673756        19.65625
4.8632                 0.4621484        19.14031       0.04981257        165.5137       0.04981244        165.5138        0.4621474        19.14027
4.8646                 0.4568207        18.62381       0.05484305        161.4348       0.05484293        161.4349        0.4568196        18.62377
4.866                  0.4513741        18.10744        0.0600998        157.5211       0.06009968        157.5212         0.451373        18.10741
4.8674                 0.4457889        17.59236       0.06555819        153.7377       0.06555808        153.7377        0.4457878        17.59234
4.8688                 0.4400462        17.08027       0.07119308        150.0571       0.07119298        150.0572         0.440045        17.08026
4.8702                 0.4341279        16.57348       0.07697865        146.4583       0.07697856        146.4584        0.4341267        16.57348
4.8716                 0.4280179        16.07493       0.08288836        142.9246       0.08288828        142.9247        0.4280167        16.07493