! TOUCHSTONE file generated by CST MICROWAVE STUDIO
! Date and time: Sat Nov 30 13:10:59 2024
! Project name: test_tuning.cst
! Parameters = {airCoaxOuterDiameter=3; chamferAngle=45; chamferWidth=24; connectorLength=10; drillingHoleDiameter=4.1; feedLength=60; flareDiameter=130; flareLength=70; gratingDistance=0; gratingGap=1.90274; outletLength=30; polarizerLength=134; probe1Diameter=1.3; probe1Distance=13.5; probe1Length=12; probe2Diameter=1.3; probe2Distance=0; probe2Length=12; probeLength=12; smaInnerDiameter=1.3; smaOuterDiameter=4.1; transitionCoefficient=1.33; waveguideFeedLength=30; waveguideSide=50; waveguideThickness=3; wireCount=25; wireDiameter=1.17699}
! Header version: 2024
! Port assignment regex: !\s*Touchstone port\s*([0-9]+)\s*=\s*(CST MWS port|CST DES external port|CST DES block port)\s*(.+)\s* \(\"(.*)\"\)(\s*mode\s*([0-9]+))?.*
! Touchstone port assignment:
! Touchstone port 1 = CST MWS port 1 ("Input1")
! Touchstone port 2 = CST MWS port 2 ("Input2")
# GHz S MA R 50
4.6                    0.1946261       -158.4788        0.6084412        69.22217        0.6084421        69.22211        0.1946255       -158.4787
4.6014                 0.2012189       -159.2267        0.6107433        68.36343        0.6107441        68.36337        0.2012184       -159.2266
4.6028                 0.2079269       -159.9636        0.6130375         67.4875        0.6130382        67.48742        0.2079265       -159.9635
4.6042                 0.2147597       -160.6937        0.6153067        66.59339        0.6153072        66.59331        0.2147594       -160.6936
4.6056                 0.2217255       -161.4209        0.6175316        65.68035         0.617532        65.68025        0.2217253       -161.4207
4.607                   0.228831       -162.1491        0.6196915        64.74785        0.6196917        64.74774        0.2288309       -162.1489
4.6084                 0.2360811        -162.882        0.6217644         63.7956        0.6217644        63.79549        0.2360811       -162.8818
4.6098                 0.2434788       -163.6231        0.6237276        62.82357        0.6237275        62.82346        0.2434789       -163.6229
4.6112                 0.2510251       -164.3755        0.6255582        61.83201        0.6255579        61.83189        0.2510254       -164.3753
4.6126                 0.2587192       -165.1422        0.6272331        60.82137        0.6272327        60.82124        0.2587196        -165.142
4.614                   0.266558       -165.9256          0.62873        59.79237        0.6287294        59.79225        0.2665586       -165.9254
4.6154                 0.2745368       -166.7279        0.6300271        58.74598        0.6300263        58.74587        0.2745376       -166.7277
4.6168                 0.2826487       -167.5508        0.6311041        57.68337        0.6311031        57.68325        0.2826496       -167.5506
4.6182                 0.2908852       -168.3959        0.6319423        56.60588        0.6319412        56.60577        0.2908864       -168.3956
4.6196                 0.2992363        -169.264        0.6325249        55.51507        0.6325236        55.51498        0.2992376       -169.2637
4.621                  0.3076905       -170.1559        0.6328371        54.41266        0.6328357        54.41258         0.307692       -170.1557
4.6224                 0.3162349        -171.072        0.6328669        53.30046        0.6328654        53.30039        0.3162366       -171.0717
4.6238                 0.3248558       -172.0123        0.6326047        52.18043        0.6326031        52.18036        0.3248577       -172.0121
4.6252                 0.3335386       -172.9766        0.6320437        51.05459         0.632042        51.05453        0.3335406       -172.9764
4.6266                 0.3422678       -173.9644          0.63118        49.92505        0.6311783        49.92499        0.3422699       -173.9643
4.628                  0.3510278       -174.9752        0.6300128        48.79391        0.6300109        48.79387          0.35103        -174.975
4.6294                 0.3598023        -176.008         0.628544        47.66332        0.6285422        47.66329        0.3598048       -176.0079
4.6308                 0.3685756       -177.0618        0.6267787        46.53541        0.6267769        46.53539        0.3685782       -177.0618
4.6322                 0.3773314       -178.1356        0.6247247        45.41224        0.6247229        45.41223        0.3773341       -178.1356
4.6336                  0.386054       -179.2281        0.6223927        44.29584        0.6223909        44.29585        0.3860567        -179.228
4.635                   0.394728         179.662        0.6197957        43.18815        0.6197939        43.18816        0.3947308         179.662
4.6364                 0.4033384        178.5361        0.6169494        42.09096        0.6169476          42.091        0.4033412        178.5361
4.6378                  0.411871        177.3954        0.6138713        41.00597        0.6138696        41.00601        0.4118738        177.3954
4.6392                 0.4203122        176.2414        0.6105813        39.93467        0.6105797        39.93473        0.4203151        176.2413
4.6406                 0.4286492        175.0754        0.6071005        38.87843        0.6070989         38.8785         0.428652        175.0753
4.642                    0.43687        173.8988        0.6034514        37.83837        0.6034498        37.83844        0.4368728        173.8987
4.6434                 0.4449637        172.7128        0.5996572        36.81542        0.5996558        36.81549        0.4449664        172.7127
4.6448                 0.4529198        171.5188        0.5957421        35.81023        0.5957407        35.81032        0.4529224        171.5187
4.6462                 0.4607293        170.3179          0.59173        34.82327        0.5917288        34.82336        0.4607318        170.3178
4.6476                 0.4683837        169.1114         0.587645        33.85469        0.5876439        33.85479        0.4683861        169.1112
4.649                  0.4758755        167.9002        0.5835103        32.90441        0.5835093        32.90451        0.4758778           167.9
4.6504                 0.4831983        166.6854        0.5793483        31.97208        0.5793474        31.97218        0.4832004        166.6852
4.6518                 0.4903461        165.4679          0.57518        31.05708        0.5751792        31.05718         0.490348        165.4677
4.6532                 0.4973139        164.2486        0.5710247        30.15855        0.5710241        30.15865        0.4973156        164.2484
4.6546                 0.5040973        163.0283           0.5669        29.27537        0.5668994        29.27547        0.5040989        163.0281
4.656                  0.5106927        161.8077        0.5628206        28.40623        0.5628202        28.40634        0.5106941        161.8075
4.6574                 0.5170969        160.5873        0.5587995        27.54962        0.5587992        27.54972        0.5170981        160.5872
4.6588                 0.5233073        159.3679        0.5548466        26.70386        0.5548463        26.70396        0.5233083        159.3677
4.6602                 0.5293215        158.1499        0.5509691        25.86716        0.5509688        25.86725        0.5293223        158.1497
4.6616                 0.5351375        156.9337        0.5471713        25.03763        0.5471712        25.03771        0.5351384        156.9335
4.663                  0.5407539        155.7197         0.543455        24.21334        0.5434549        24.21342        0.5407545        155.7196
4.6644                  0.546169        154.5083        0.5398189        23.39237        0.5398188        23.39244        0.5461695        154.5082
4.6658                 0.5513815        153.2998        0.5362592        22.57283        0.5362591        22.57289        0.5513819        153.2997
4.6672                 0.5563901        152.0945        0.5327696        21.75291        0.5327696        21.75297        0.5563904        152.0944
4.6686                 0.5611937        150.8926        0.5293418        20.93092        0.5293417        20.93098        0.5611938        150.8925
4.67                   0.5657908        149.6943        0.5259652        20.10536        0.5259651        20.10541        0.5657909        149.6942
4.6714                 0.5701803        148.4998        0.5226279        19.27487        0.5226279        19.27491        0.5701804        148.4997
4.6728                 0.5743611        147.3094        0.5193166        18.43834        0.5193166        18.43837         0.574361        147.3093
4.6742                 0.5783315        146.1232        0.5160171         17.5949        0.5160172        17.59492        0.5783315        146.1231
4.6756                 0.5820907        144.9414        0.5127147         16.7439        0.5127148        16.74392        0.5820906        144.9414
4.677                  0.5856371        143.7644        0.5093946        15.88499        0.5093946        15.88501        0.5856371        143.7644
4.6784                 0.5889698        142.5923        0.5060419        15.01807        0.5060418        15.01808        0.5889698        142.5923
4.6798                 0.5920876        141.4254        0.5026427        14.14328        0.5026426        14.14328        0.5920876        141.4255
4.6812                 0.5949896        140.2641        0.4991835        13.26103        0.4991834        13.26104        0.5949898        140.2641
4.6826                 0.5976753        139.1086        0.4956525        12.37199        0.4956524        12.37199        0.5976755        139.1086
4.684                  0.6001441        137.9592         0.492039        11.47701        0.4920387        11.47702        0.6001444        137.9593
4.6854                 0.6023964        136.8165        0.4883337        10.57718        0.4883335        10.57718        0.6023968        136.8166
4.6868                 0.6044324        135.6808        0.4845299        9.673748        0.4845297        9.673749        0.6044329        135.6809
4.6882                 0.6062532        134.5525        0.4806223        8.768112         0.480622        8.768115        0.6062537        134.5526
4.6896                 0.6078604        133.4321        0.4766078        7.861804        0.4766075        7.861807        0.6078612        133.4322
4.691                  0.6092563        132.3201        0.4724857        6.956434        0.4724854         6.95644        0.6092571        132.3203
4.6924                 0.6104436        131.2171         0.468257        6.053683        0.4682567        6.053691        0.6104447        131.2172
4.6938                 0.6114264        130.1234        0.4639253        5.155251        0.4639249        5.155261        0.6114274        130.1235
4.6952                 0.6122088        129.0396        0.4594959        4.262832        0.4594956        4.262844          0.61221        129.0397
4.6966                 0.6127964        127.9663        0.4549762        3.378078        0.4549757        3.378095        0.6127976        127.9664
4.698                  0.6131951        126.9039        0.4503751        2.502568        0.4503748        2.502587        0.6131965        126.9039
4.6994                  0.613412        125.8528        0.4457035        1.637768        0.4457032         1.63779        0.6134135        125.8528
4.7008                  0.613455        124.8135        0.4409734        0.785003        0.4409731       0.7850286        0.6134564        124.8136
4.7022                 0.6133324        123.7865        0.4361978     -0.05457326        0.4361975     -0.05454467        0.6133337        123.7865
4.7036                 0.6130534        122.7719        0.4313908      -0.8800092        0.4313905      -0.8799773        0.6130548         122.772
4.705                  0.6126281        121.7702        0.4265667        -1.69058        0.4265664       -1.690546        0.6126295        121.7702
4.7064                 0.6120668        120.7815        0.4217403       -2.485821          0.42174       -2.485766        0.6120683        120.7815
4.7078                 0.6113807        119.8059        0.4169261       -3.265485        0.4169259       -3.265458        0.6113821        119.8059
4.7092                 0.6105805        118.8435        0.4121383       -4.029691        0.4121381       -4.029637        0.6105819        118.8435
4.7106                  0.609678        117.8942        0.4073902       -4.778765        0.4073901       -4.778726        0.6096793        117.8942
4.712                  0.6086845        116.9579        0.4026944       -5.513351        0.4026942       -5.513312        0.6086857        116.9578
4.7134                 0.6076114        116.0342        0.3980617       -6.234362        0.3980616       -6.234325        0.6076126        116.0342
4.7148                 0.6064698        115.1229        0.3935018       -6.942971        0.3935017       -6.942934        0.6064709        115.1229
4.7162                 0.6052702        114.2235        0.3890224       -7.640588        0.3890224       -7.640553        0.6052712        114.2234
4.7176                 0.6040229        113.3353        0.3846294       -8.328825        0.3846293       -8.328795        0.6040237        113.3352
4.719                  0.6027369        112.4577        0.3803264       -9.009466        0.3803264       -9.009437        0.6027376        112.4577
4.7204                 0.6014208        111.5899        0.3761152       -9.684414        0.3761152       -9.684391        0.6014214        111.5899
4.7218                 0.6000818        110.7312        0.3719954       -10.35565        0.3719954       -10.35563        0.6000823        110.7311
4.7232                 0.5987263        109.8806        0.3679643       -11.02518        0.3679643       -11.02516        0.5987266        109.8805
4.7246                  0.597359         109.037        0.3640175       -11.69497        0.3640175       -11.69496        0.5973593         109.037
4.726                  0.5959838        108.1996        0.3601486       -12.36692        0.3601486       -12.36692         0.595984        108.1995
4.7274                 0.5946029        107.3672        0.3563498       -13.04278        0.3563499       -13.04278         0.594603        107.3671
4.7288                 0.5932171        106.5388        0.3526117       -13.72414        0.3526117       -13.72415         0.593217        106.5388
4.7302                  0.591826        105.7135        0.3489239       -14.41234         0.348924       -14.41235        0.5918258        105.7134
4.7316                 0.5904277        104.8901        0.3452753       -15.10848        0.3452753        -15.1085        0.5904275          104.89
4.733                  0.5890192        104.0677         0.341654       -15.81336         0.341654       -15.81338        0.5890188        104.0677
4.7344                  0.587596        103.2455        0.3380483       -16.52749        0.3380483       -16.52751        0.5875955        103.2454
4.7358                 0.5861529        102.4225        0.3344465       -17.25102        0.3344464       -17.25106        0.5861524        102.4225
4.7372                 0.5846835        101.5982        0.3308373       -17.98382        0.3308372       -17.98386        0.5846831        101.5982
4.7386                 0.5831811         100.772        0.3272103        -18.7254        0.3272102       -18.72544        0.5831805         100.772
4.74                   0.5816376        99.94319         0.323556       -19.47496        0.3235559         -19.475         0.581637        99.94319
4.7414                 0.5800453        99.11152        0.3198663       -20.23141        0.3198661       -20.23145        0.5800447        99.11152
4.7428                 0.5783958        98.27675        0.3161345       -20.99339        0.3161343       -20.99343        0.5783952        98.27678
4.7442                 0.5766809        97.43874        0.3123555       -21.75927        0.3123553       -21.75931        0.5766803        97.43877
4.7456                 0.5748926        96.59753        0.3085263       -22.52723         0.308526       -22.52727         0.574892        96.59756
4.747                  0.5730233        95.75327        0.3046451       -23.29527        0.3046448       -23.29531        0.5730228         95.7533
4.7484                 0.5710658         94.9062        0.3007128       -24.06126        0.3007125        -24.0613        0.5710653        94.90629
4.7498                 0.5690138        94.05673        0.2967317       -24.82297        0.2967313       -24.82301        0.5690132        94.05679
4.7512                 0.5668618        93.20533        0.2927061       -25.57817        0.2927057        -25.5782        0.5668613        93.20538
4.7526                 0.5646054        92.35258        0.2886422       -26.32461        0.2886418       -26.32463         0.564605        92.35264
4.754                  0.5622413         91.4991        0.2845478       -27.06013        0.2845473       -27.06015         0.562241        91.49918
4.7554                 0.5597676        90.64567        0.2804321       -27.78271        0.2804317       -27.78272        0.5597672        90.64573
4.7568                 0.5571834        89.79298        0.2763059        -28.4905        0.2763054        -28.4905        0.5571831        89.79306
4.7582                 0.5544894        88.94188        0.2721807       -29.18191        0.2721803       -29.18191        0.5544891        88.94193
4.7596                 0.5516874        88.09311        0.2680693       -29.85564        0.2680689       -29.85563        0.5516871        88.09319
4.761                  0.5487807        87.24749        0.2639846       -30.51077        0.2639842       -30.51075        0.5487805        87.24758
4.7624                 0.5457738        86.40572        0.2599399       -31.14677        0.2599395       -31.14674        0.5457735        86.40583
4.7638                 0.5426724         85.5686        0.2559483       -31.76357        0.2559479       -31.76354         0.542672        85.56866
4.7652                  0.539483        84.73665        0.2520226        -32.3616        0.2520222       -32.36155        0.5394827        84.73671
4.7666                 0.5362136        83.91046        0.2481747       -32.94178        0.2481743       -32.94172        0.5362133        83.91051
4.768                  0.5328724        83.09039        0.2444153       -33.50558         0.244415       -33.50552         0.532872         83.0905
4.7694                 0.5294685        82.27683        0.2407539       -34.05498        0.2407536       -34.05491        0.5294682        82.27694
4.7708                 0.5260114        81.46996        0.2371981       -34.59246        0.2371978        -34.5924        0.5260111        81.47004
4.7722                 0.5225106        80.66974        0.2337537         -35.121        0.2337534       -35.12092        0.5225102         80.6698
4.7736                 0.5189756        79.87608        0.2304242       -35.64393        0.2304239       -35.64386        0.5189752        79.87614
4.775                  0.5154159        79.08865         0.227211       -36.16497        0.2272108       -36.16489        0.5154155        79.08876
4.7764                 0.5118402        78.30709        0.2241131       -36.68809        0.2241129       -36.68801        0.5118398        78.30715
4.7778                 0.5082566        77.53066        0.2211271       -37.21739         0.221127        -37.2173        0.5082562        77.53075
4.7792                 0.5046723        76.75868        0.2182476       -37.75703        0.2182475       -37.75695        0.5046719        76.75876
4.7806                 0.5010934        75.99019        0.2154668       -38.31115        0.2154668       -38.31106         0.501093        75.99028
4.782                  0.4975247        75.22419        0.2127751       -38.88368        0.2127751        -38.8836        0.4975243        75.22427
4.7834                 0.4939698         74.4595        0.2101611       -39.47834        0.2101611       -39.47825        0.4939693        74.45958
4.7848                 0.4904303        73.69489        0.2076122       -40.09844        0.2076123       -40.09836        0.4904298        73.69497
4.7862                 0.4869065          72.929        0.2051148       -40.74691        0.2051149       -40.74684        0.4869061        72.92912
4.7876                 0.4833974        72.16052        0.2026544       -41.42618        0.2026545       -41.42611         0.483397        72.16064
4.789                  0.4798998        71.38807        0.2002163       -42.13813        0.2002164       -42.13806        0.4798994        71.38818
4.7904                 0.4764092        70.61026         0.197786       -42.88406        0.1977861         -42.884        0.4764088         70.6104
4.7918                 0.4729196        69.82579        0.1953491       -43.66474        0.1953492       -43.66469        0.4729192        69.82593
4.7932                 0.4694233        69.03343        0.1928922       -44.48035        0.1928924        -44.4803        0.4694229        69.03357
4.7946                 0.4659117        68.23201        0.1904029       -45.33051        0.1904031       -45.33046        0.4659114        68.23215
4.796                  0.4623749         67.4205        0.1878701       -46.21432        0.1878703       -46.21429        0.4623746        67.42065
4.7974                 0.4588022        66.59801        0.1852842       -47.13042        0.1852844        -47.1304         0.458802        66.59818
4.7988                  0.455182        65.76385        0.1826374       -48.07702        0.1826375         -48.077        0.4551819        65.76401
4.8002                 0.4515026        64.91744        0.1799236       -49.05195        0.1799238       -49.05194        0.4515025         64.9176
4.8016                 0.4477517        64.05845        0.1771391       -50.05274        0.1771392       -50.05274        0.4477517        64.05861
4.803                  0.4439174         63.1867        0.1742817        -51.0767        0.1742819        -51.0767        0.4439174        63.18685
4.8044                 0.4399878        62.30225        0.1713518       -52.12094        0.1713519       -52.12095        0.4399878        62.30242
4.8058                 0.4359516        61.40537        0.1683513       -53.18254        0.1683515       -53.18256        0.4359517        61.40554
4.8072                 0.4317982        60.49649        0.1652845       -54.25855        0.1652847       -54.25857        0.4317984        60.49665
4.8086                  0.427518        59.57628        0.1621572       -55.34611        0.1621574       -55.34614        0.4275183        59.57643
4.81                   0.4231027        58.64556        0.1589772       -56.44257        0.1589773        -56.4426         0.423103         58.6457
4.8114                 0.4185449        57.70534        0.1557537       -57.54554        0.1557538       -57.54557        0.4185453        57.70547
4.8128                  0.413839         56.7568         0.152497       -58.65306        0.1524971        -58.6531        0.4138395        56.75692
4.8142                 0.4089808        55.80123        0.1492188       -59.76365        0.1492189        -59.7637        0.4089813        55.80134
4.8156                 0.4039677        54.84006        0.1459314       -60.87652        0.1459315       -60.87658        0.4039682        54.84017
4.817                  0.3987989        53.87485        0.1426477       -61.99159        0.1426477       -61.99163        0.3987993        53.87494
4.8184                  0.393475        52.90718        0.1393805       -63.10966        0.1393806       -63.10972        0.3934755        52.90726
4.8198                 0.3879987        51.93872        0.1361428        -64.2326        0.1361429       -64.23266        0.3879991         51.9388
4.8212                 0.3823739        50.97118        0.1329469       -65.36333        0.1329469       -65.36337        0.3823745        50.97124
4.8226                 0.3766066        50.00621        0.1298041       -66.50605        0.1298042        -66.5061        0.3766071        50.00627
4.824                  0.3707036        49.04551        0.1267249       -67.66622        0.1267249       -67.66627         0.370704        49.04555
4.8254                 0.3646733        48.09068         0.123718       -68.85072         0.123718       -68.85079        0.3646738        48.09069
4.8268                 0.3585254        47.14323        0.1207906       -70.06782        0.1207906       -70.06788        0.3585258        47.14323
4.8282                 0.3522701        46.20458        0.1179478       -71.32713        0.1179478       -71.32718        0.3522705        46.20458
4.8296                 0.3459188          45.276        0.1151929       -72.63966        0.1151929       -72.63972         0.345919        45.27598
4.831                  0.3394829        44.35859         0.112527       -74.01768         0.112527       -74.01774         0.339483        44.35856
4.8324                 0.3329742        43.45325        0.1099492        -75.4746        0.1099492       -75.47467        0.3329743        43.45322
4.8338                 0.3264047        42.56069        0.1074569       -77.02493        0.1074569         -77.025        0.3264048        42.56063
4.8352                 0.3197858        41.68134        0.1050458       -78.68401        0.1050458       -78.68407        0.3197857        41.68128
4.8366                 0.3131283         40.8154        0.1027103       -80.46794        0.1027103         -80.468        0.3131282        40.81533
4.838                  0.3064424        39.96279        0.1004443       -82.39343        0.1004443        -82.3935        0.3064422        39.96272
4.8394                  0.299737        39.12317       0.09824129       -84.47771       0.09824127       -84.47777        0.2997367         39.1231
4.8408                 0.2930197        38.29592        0.0960953       -86.73833       0.09609528       -86.73839        0.2930193        38.29584
4.8422                 0.2862967        37.48015       0.09400138       -89.19316       0.09400137       -89.19322        0.2862962        37.48006
4.8436                 0.2795723        36.67471       0.09195643       -91.86024       0.09195642        -91.8603        0.2795717        36.67463
4.845                  0.2728489        35.87825       0.08995987       -94.75774       0.08995985        -94.7578        0.2728483        35.87817
4.8464                 0.2661271        35.08924       0.08801437       -97.90376       0.08801436       -97.90383        0.2661264        35.08915
4.8478                 0.2594054        34.30596       0.08612663       -101.3161       0.08612662       -101.3162        0.2594045        34.30588
4.8492                 0.2526799        33.52666       0.08430802       -105.0119       0.08430801       -105.0119         0.252679        33.52658
4.8506                 0.2459451        32.74955        0.0825751       -109.0069       0.08257511        -109.007        0.2459442        32.74948
4.852                  0.2391933        31.97289       0.08095014       -113.3148       0.08095015       -113.3149        0.2391924        31.97283
4.8534                 0.2324153         31.1951       0.07946127        -117.946       0.07946128        -117.946        0.2324143        31.19504
4.8548                 0.2255997        30.41484       0.07814235       -122.9055       0.07814235       -122.9056        0.2255987        30.41478
4.8562                 0.2187345         29.6311       0.07703242       -128.1921       0.07703244       -128.1921        0.2187334        29.63106
4.8576                 0.2118059        28.84336       0.07617465       -133.7952       0.07617467       -133.7953        0.2118047        28.84333
4.859                  0.2047996         28.0517       0.07561453       -139.6941       0.07561457       -139.6942        0.2047985        28.05167
4.8604                 0.1977011        27.25693       0.07539758       -145.8559       0.07539762        -145.856        0.1976999        27.25692
4.8618                 0.1904954        26.46081       0.07556649       -152.2361       0.07556655       -152.2362        0.1904942        26.46081
4.8632                 0.1831681        25.66622       0.07615808       -158.7796       0.07615812       -158.7797        0.1831669        25.66623
4.8646                 0.1757055        24.87742       0.07720036        -165.424       0.07720042       -165.4241        0.1757043        24.87744
4.866                  0.1680951        24.10039       0.07871043       -172.1037       0.07871049       -172.1038        0.1680939        24.10042
4.8674                  0.160326        23.34322       0.08069306        -178.755       0.08069312        -178.755        0.1603248        23.34326
4.8688                 0.1523892        22.61668       0.08314068        174.6796       0.08314075        174.6796         0.152388        22.61673
4.8702                 0.1442785        21.93499       0.08603431        168.2477       0.08603438        168.2477        0.1442773        21.93504
4.8716                 0.1359907        21.31687       0.08934524        161.9855       0.08934532        161.9854        0.1359895        21.31694