! TOUCHSTONE file generated by CST MICROWAVE STUDIO
! Date and time: Sat Nov 30 13:10:55 2024
! Project name: test_tuning.cst
! Parameters = {airCoaxOuterDiameter=3; chamferAngle=45; chamferWidth=24; connectorLength=10; drillingHoleDiameter=4.1; feedLength=60; flareDiameter=130; flareLength=70; gratingDistance=0; gratingGap=1.90274; outletLength=30; polarizerLength=134; probe1Diameter=1.3; probe1Distance=8; probe1Length=12; probe2Diameter=1.3; probe2Distance=0; probe2Length=12; probeLength=12; smaInnerDiameter=1.3; smaOuterDiameter=4.1; transitionCoefficient=1.33; waveguideFeedLength=30; waveguideSide=50; waveguideThickness=3; wireCount=25; wireDiameter=1.17699}
! Header version: 2024
! Port assignment regex: !\s*Touchstone port\s*([0-9]+)\s*=\s*(CST MWS port|CST DES external port|CST DES block port)\s*(.+)\s* \(\"(.*)\"\)(\s*mode\s*([0-9]+))?.*
! Touchstone port assignment:
! Touchstone port 1 = CST MWS port 1 ("Input1")
! Touchstone port 2 = CST MWS port 2 ("Input2")
# GHz S MA R 50
4.6                    0.4187325        32.38092        0.5273272        111.0761        0.5273266        111.0761        0.4187322          32.381
4.6014                 0.4120417        31.28618        0.5343277        110.3287        0.5343272        110.3287        0.4120413        31.28626
4.6028                 0.4049932        30.10251        0.5418531         109.556        0.5418526        109.5561        0.4049928        30.10259
4.6042                 0.3975127        28.82406        0.5499146        108.7499        0.5499141          108.75        0.3975123        28.82416
4.6056                 0.3895264        27.44545        0.5585114        107.9023         0.558511        107.9024         0.389526        27.44555
4.607                  0.3809623        25.96156        0.5676301        107.0057        0.5676297        107.0057        0.3809619        25.96167
4.6084                 0.3717519        24.36742        0.5772452         106.053        0.5772448         106.053        0.3717515        24.36753
4.6098                 0.3618318        22.65792        0.5873193        105.0381        0.5873188        105.0381        0.3618314        22.65804
4.6112                 0.3511451        20.82751        0.5978035         103.956        0.5978032         103.956        0.3511447        20.82764
4.6126                 0.3396425        18.86981        0.6086395        102.8025        0.6086393        102.8025        0.3396422        18.86995
4.614                  0.3272835        16.77708        0.6197599        101.5746        0.6197597        101.5746        0.3272832        16.77723
4.6154                 0.3140377        14.53951        0.6310899        100.2703        0.6310898        100.2703        0.3140374        14.53967
4.6168                 0.2998856        12.14432        0.6425486        98.88871        0.6425484        98.88874        0.2998854        12.14448
4.6182                 0.2848203        9.574417        0.6540512         97.4299        0.6540511        97.42994        0.2848202         9.57459
4.6196                 0.2688482        6.806588        0.6655096         95.8948        0.6655096        95.89483        0.2688481        6.806773
4.621                  0.2519918        3.808727        0.6768347        94.28508        0.6768346        94.28511        0.2519917        3.808926
4.6224                 0.2342913       0.5356973         0.687937        92.60312         0.687937        92.60315        0.2342913       0.5359088
4.6238                 0.2158101        -3.07718        0.6987287        90.85185        0.6987287        90.85188        0.2158101       -3.076953
4.6252                 0.1966411       -7.124618        0.7091242        89.03466        0.7091243        89.03469        0.1966411       -7.124373
4.6266                 0.1769194       -11.74885        0.7190417        87.15533        0.7190418        87.15533        0.1769195       -11.74858
4.628                  0.1568456        -17.1695        0.7284035        85.21784        0.7284036        85.21784        0.1568457        -17.1692
4.6294                  0.136729       -23.73526        0.7371375        83.22644        0.7371376        83.22644         0.136729       -23.73493
4.6308                 0.1170733       -32.01072         0.745177        81.18542        0.7451772        81.18544        0.1170734       -32.01033
4.6322                0.09874712       -42.89788        0.7524621        79.09925        0.7524623        79.09926       0.09874713       -42.89744
4.6336                0.08328745       -57.67016        0.7589394        76.97231        0.7589396        76.97231       0.08328737       -57.66965
4.635                 0.07321147       -77.31717        0.7645625          74.809        0.7645628          74.809       0.07321125       -77.31663
4.6364                0.07143966       -100.3673        0.7692922        72.61368        0.7692925        72.61368       0.07143927       -100.3669
4.6378                0.07897118        -122.156        0.7730962        70.39061        0.7730964        70.39061       0.07897065       -122.1556
4.6392                0.09386599       -139.3573        0.7759497        68.14393        0.7759499        68.14391       0.09386542        -139.357
4.6406                 0.1134113       -152.0781        0.7778346         65.8777        0.7778349        65.87767        0.1134107       -152.0779
4.642                  0.1356761       -161.6219        0.7787399        63.59582        0.7787402        63.59581        0.1356755       -161.6217
4.6434                 0.1595245       -169.0907         0.778661        61.30214        0.7786612        61.30213        0.1595239       -169.0906
4.6448                  0.184293        -175.202        0.7775996         59.0003        0.7775997        59.00029        0.1842925       -175.2018
4.6462                   0.20957         179.601        0.7755632        56.69389        0.7755634        56.69386        0.2095695        179.6011
4.6476                  0.235079        175.0414        0.7725651        54.38634        0.7725652        54.38631        0.2350784        175.0415
4.649                  0.2606194        170.9418        0.7686238        52.08097        0.7686239        52.08095        0.2606189        170.9419
4.6504                 0.2860363        167.1851        0.7637627        49.78105        0.7637628        49.78102        0.2860359        167.1852
4.6518                 0.3112037        163.6914        0.7580095        47.48971        0.7580096        47.48968        0.3112032        163.6915
4.6532                 0.3360148        160.4052        0.7513965        45.21001        0.7513966        45.20999        0.3360144        160.4053
4.6546                 0.3603776        157.2867        0.7439593        42.94497        0.7439594        42.94494        0.3603771        157.2868
4.656                  0.3842108        154.3072        0.7357373        40.69751        0.7357373        40.69747        0.3842104        154.3073
4.6574                 0.4074425        151.4452        0.7267728        38.47051        0.7267728        38.47047        0.4074422        151.4453
4.6588                 0.4300086        148.6849         0.717111        36.26681        0.7171111        36.26677        0.4300083         148.685
4.6602                 0.4518523        146.0141        0.7067997         34.0892        0.7067997        34.08917        0.4518521        146.0142
4.6616                 0.4729235        143.4237        0.6958887        31.94045        0.6958887        31.94041        0.4729234        143.4238
4.663                  0.4931787        140.9068        0.6844298        29.82326        0.6844297        29.82323        0.4931786        140.9069
4.6644                 0.5125805        138.4579        0.6724763        27.74032        0.6724762        27.74028        0.5125804         138.458
4.6658                  0.531098         136.073         0.660083        25.69424        0.6600828         25.6942        0.5310979        136.0731
4.6672                 0.5487061         133.749        0.6473054        23.68761        0.6473052        23.68757        0.5487061        133.7491
4.6686                 0.5653864        131.4838           0.6342        21.72291        0.6341997        21.72288        0.5653864        131.4839
4.67                   0.5811264        129.2756        0.6208233        19.80257        0.6208229        19.80254        0.5811264        129.2757
4.6714                 0.5959195        127.1233         0.607232        17.92887        0.6072317        17.92884        0.5959196        127.1234
4.6728                 0.6097656        125.0261        0.5934825        16.10397        0.5934822        16.10394        0.6097658        125.0262
4.6742                 0.6226703        122.9836        0.5796303        14.32985          0.57963        14.32982        0.6226704        122.9836
4.6756                 0.6346451        120.9954        0.5657297         12.6083        0.5657293        12.60828        0.6346452        120.9954
4.677                  0.6457071        119.0614        0.5518334        10.94086        0.5518331        10.94084        0.6457073        119.0614
4.6784                 0.6558792        117.1816        0.5379923        9.328786         0.537992         9.32877        0.6558794        117.1817
4.6798                 0.6651891        115.3561        0.5242547        7.773012        0.5242543        7.772999        0.6651893        115.3562
4.6812                 0.6736697        113.5849        0.5106658        6.274115        0.5106655        6.274106        0.6736699         113.585
4.6826                 0.6813578        111.8679        0.4972676         4.83228        0.4972673        4.832274         0.681358         111.868
4.684                  0.6882946        110.2051        0.4840984        3.447264        0.4840981        3.447263        0.6882948        110.2051
4.6854                 0.6945243        108.5962        0.4711922        2.118379        0.4711919        2.118382        0.6945245        108.5962
4.6868                 0.7000944        107.0408        0.4585786       0.8444772        0.4585783       0.8444833        0.7000946        107.0408
4.6882                 0.7050538        105.5384        0.4462826      -0.3760524        0.4462823      -0.3760426         0.705054        105.5384
4.6896                 0.7094535        104.0882        0.4343238       -1.545264        0.4343236       -1.545251        0.7094538        104.0882
4.691                  0.7133449        102.6891        0.4227173       -2.665632        0.4227171       -2.665615        0.7133451        102.6892
4.6924                 0.7167794        101.3401        0.4114728       -3.740003        0.4114727       -3.739983        0.7167795        101.3401
4.6938                 0.7198077        100.0395        0.4005952       -4.771537        0.4005951       -4.771515        0.7198078        100.0396
4.6952                 0.7224789         98.7858        0.3900846       -5.763635        0.3900845       -5.763613        0.7224791        98.78584
4.6966                 0.7248401        97.57695        0.3799365       -6.719854        0.3799364       -6.719832        0.7248403        97.57698
4.698                  0.7269357        96.41086        0.3701427        -7.64381        0.3701426       -7.643786        0.7269359        96.41088
4.6994                 0.7288064        95.28521        0.3606911        -8.53908        0.3606912       -8.539053        0.7288066        95.28523
4.7008                 0.7304896        94.19753        0.3515669       -9.409128         0.351567       -9.409101        0.7304898        94.19756
4.7022                  0.732018        93.14524        0.3427529       -10.25711         0.342753       -10.25711        0.7320183        93.14527
4.7036                 0.7334202        92.12569        0.3342303       -11.08595        0.3342304       -11.08595        0.7334204         92.1257
4.705                  0.7347202        91.13618        0.3259789        -11.8982        0.3259791       -11.89817        0.7347204         91.1362
4.7064                 0.7359372        90.17403        0.3179786       -12.69585        0.3179788       -12.69585        0.7359373        90.17405
4.7078                 0.7370858        89.23666        0.3102094       -13.48051        0.3102095       -13.48051         0.737086        89.23667
4.7092                 0.7381765        88.32151        0.3026518        -14.2532         0.302652        -14.2532        0.7381767        88.32153
4.7106                 0.7392156        87.42624        0.2952881       -15.01447        0.2952883       -15.01447        0.7392158        87.42624
4.712                  0.7402057        86.54866         0.288102       -15.76433        0.2881022       -15.76435        0.7402059        86.54868
4.7134                 0.7411462        85.68679        0.2810793       -16.50236        0.2810795       -16.50238        0.7411464        85.68681
4.7148                 0.7420338        84.83885        0.2742081       -17.22767        0.2742083        -17.2277         0.742034        84.83888
4.7162                 0.7428631        84.00339         0.267479       -17.93903        0.2674792       -17.93907        0.7428633        84.00339
4.7176                 0.7436271        83.17911        0.2608851       -18.63492        0.2608853       -18.63496        0.7436273        83.17911
4.719                  0.7443178        82.36504        0.2544217       -19.31359        0.2544218       -19.31363        0.7443179        82.36504
4.7204                 0.7449267        81.56039        0.2480866       -19.97319        0.2480868       -19.97324        0.7449269        81.56045
4.7218                 0.7454454        80.76473        0.2418799       -20.61184          0.24188        -20.6119        0.7454455        80.76473
4.7232                 0.7458663        79.97769        0.2358031       -21.22775        0.2358032       -21.22782        0.7458663        79.97771
4.7246                 0.7461824        79.19923        0.2298597       -21.81931        0.2298598       -21.81938        0.7461825        79.19923
4.726                  0.7463885        78.42938        0.2240542       -22.38518        0.2240542       -22.38525        0.7463886        78.42938
4.7274                 0.7464809        77.66835        0.2183918       -22.92439        0.2183918       -22.92447        0.7464809        77.66838
4.7288                 0.7464575         76.9165        0.2128782       -23.43644        0.2128782       -23.43652        0.7464575         76.9165
4.7302                 0.7463187        76.17417         0.207519       -23.92134         0.207519       -23.92142        0.7463187        76.17419
4.7316                 0.7460666        75.44179        0.2023194       -24.37969        0.2023193       -24.37977        0.7460666        75.44179
4.733                  0.7457055        74.71977        0.1972835        -24.8127        0.1972835       -24.81279        0.7457055        74.71977
4.7344                 0.7452417        74.00856        0.1924144       -25.22221        0.1924143        -25.2223        0.7452417        74.00856
4.7358                 0.7446828        73.30843        0.1877136       -25.61066        0.1877135       -25.61074        0.7446828        73.30848
4.7372                 0.7440385        72.61974        0.1831806       -25.98101        0.1831805       -25.98109        0.7440385        72.61974
4.7386                 0.7433196        71.94257        0.1788132       -26.33674        0.1788131       -26.33682        0.7433196        71.94256
4.74                   0.7425375          71.277        0.1746071       -26.68166        0.1746069       -26.68174        0.7425375          71.277
4.7414                 0.7417046         70.6229        0.1705556       -27.01985        0.1705555       -27.01993        0.7417045         70.6229
4.7428                  0.740833         69.9801        0.1666505       -27.35547        0.1666503       -27.35554         0.740833        69.98013
4.7442                 0.7399352        69.34816        0.1628815        -27.6926        0.1628813       -27.69267         0.739935        69.34819
4.7456                 0.7390227        68.72659        0.1592369       -28.03511        0.1592367       -28.03517        0.7390225        68.72659
4.747                  0.7381061        68.11472        0.1557037       -28.38647        0.1557035       -28.38653         0.738106        68.11472
4.7484                 0.7371953        67.51177         0.152268       -28.74963        0.1522678       -28.74968        0.7371951        67.51183
4.7498                 0.7362979        66.91692        0.1489156       -29.12687        0.1489154       -29.12692        0.7362978        66.91692
4.7512                 0.7354203        66.32918        0.1456321       -29.51972        0.1456319       -29.51978        0.7354202        66.32917
4.7526                  0.734567        65.74748        0.1424035       -29.92888        0.1424034       -29.92893        0.7345669        65.74751
4.754                  0.7337402        65.17086        0.1392168        -30.3541        0.1392166       -30.35416        0.7337401        65.17086
4.7554                 0.7329403        64.59823        0.1360599        -30.7943        0.1360598       -30.79435        0.7329402        64.59823
4.7568                 0.7321655        64.02859        0.1329224       -31.24742        0.1329222       -31.24747        0.7321654        64.02862
4.7582                 0.7314123        63.46098        0.1297955       -31.71057        0.1297953       -31.71061        0.7314122        63.46098
4.7596                 0.7306753        62.89444        0.1266724       -32.17999        0.1266723       -32.18004        0.7306752         62.8945
4.761                  0.7299475        62.32831        0.1235487       -32.65119        0.1235485       -32.65124        0.7299473         62.3283
4.7624                 0.7292207        61.76184         0.120422       -33.11899        0.1204218       -33.11904        0.7292206        61.76184
4.7638                 0.7284856        61.19449        0.1172922       -33.57765         0.117292        -33.5777        0.7284856        61.19449
4.7652                 0.7277325        60.62593        0.1141617       -34.02102        0.1141615       -34.02107        0.7277324        60.62593
4.7666                 0.7269511        60.05589         0.111035       -34.44261        0.1110348       -34.44267        0.7269509        60.05589
4.768                   0.726131        59.48437        0.1079186       -34.83586        0.1079183       -34.83592        0.7261309        59.48437
4.7694                 0.7252628        58.91136        0.1048208       -35.19426        0.1048206       -35.19431        0.7252627        58.91139
4.7708                 0.7243369        58.33715        0.1017518       -35.51156        0.1017516       -35.51161        0.7243368        58.33715
4.7722                 0.7233457        57.76205       0.09872294       -35.78207       0.09872269       -35.78212        0.7233456        57.76205
4.7736                 0.7222823        57.18656       0.09574641       -36.00091       0.09574615       -36.00096        0.7222822        57.18656
4.775                  0.7211411        56.61123        0.0928351       -36.16424       0.09283485       -36.16428         0.721141        56.61124
4.7764                 0.7199187        56.03671       0.09000195       -36.26965       0.09000168       -36.26968        0.7199185        56.03672
4.7778                 0.7186133        55.46367        0.0872595       -36.31638       0.08725923        -36.3164        0.7186131        55.46368
4.7792                 0.7172249        54.89284        0.0846194       -36.30565        0.0846191       -36.30566        0.7172246        54.89285
4.7806                 0.7157551        54.32491       0.08209182       -36.24082       0.08209152       -36.24081         0.715755        54.32492
4.782                  0.7142083        53.76056       0.07968506       -36.12759       0.07968474       -36.12757        0.7142081        53.76056
4.7834                 0.7125894         53.2004       0.07740497       -35.97402       0.07740465       -35.97397        0.7125892         53.2004
4.7848                 0.7109057        52.64496       0.07525463        -35.7904       0.07525431       -35.79034        0.7109054        52.64497
4.7862                 0.7091653        52.09468       0.07323404       -35.58907       0.07323373       -35.58898         0.709165        52.09469
4.7876                 0.7073775        51.54987       0.07133997       -35.38394       0.07133966       -35.38383        0.7073773        51.54988
4.789                  0.7055526        51.01069       0.06956589       -35.19006       0.06956559       -35.18992        0.7055523         51.0107
4.7904                 0.7037009        50.47716        0.0679022       -35.02294       0.06790192       -35.02277        0.7037007        50.47716
4.7918                 0.7018329        49.94913       0.06633649       -34.89791       0.06633622       -34.89772        0.7018327        49.94913
4.7932                 0.6999592        49.42628         0.064854       -34.82949       0.06485374       -34.82928        0.6999589         49.4263
4.7946                  0.698089        48.90818       0.06343811        -34.8308       0.06343787       -34.83056        0.6980887        48.90819
4.796                  0.6962311        48.39419       0.06207104       -34.91306       0.06207083       -34.91281        0.6962307         48.3942
4.7974                 0.6943927        47.88355       0.06073445       -35.08535       0.06073426       -35.08507        0.6943923        47.88357
4.7988                 0.6925793         47.3754       0.05941008        -35.3543       0.05940992         -35.354        0.6925792        47.37541
4.8002                 0.6907951        46.86874       0.05808034       -35.72415        0.0580802       -35.72383        0.6907947        46.86877
4.8016                 0.6890414        46.36255       0.05672886       -36.19675       0.05672875       -36.19641         0.689041        46.36257
4.803                  0.6873181        45.85572       0.05534091       -36.77175       0.05534082        -36.7714        0.6873177        45.85574
4.8044                 0.6856223        45.34715       0.05390376       -37.44681        0.0539037       -37.44645        0.6856219        45.34717
4.8058                 0.6839492        44.83575       0.05240695       -38.21786       0.05240691       -38.21749        0.6839489        44.83577
4.8072                  0.682292        44.32049       0.05084245       -39.07933       0.05084244       -39.07896        0.6822916        44.32052
4.8086                 0.6806413        43.80042       0.04920478       -40.02442        0.0492048       -40.02404        0.6806409        43.80044
4.81                   0.6789862         43.2747       0.04749105       -41.04531       0.04749109       -41.04493         0.678986        43.27472
4.8114                 0.6773144        42.74262       0.04570085       -42.13345        0.0457009       -42.13307        0.6773141        42.74264
4.8128                 0.6756118        42.20366       0.04383628       -43.27965       0.04383635       -43.27926        0.6756116        42.20367
4.8142                  0.673864        41.65744       0.04190175       -44.47434       0.04190184       -44.47396        0.6738637        41.65746
4.8156                 0.6720554         41.1038       0.03990386       -45.70778       0.03990396       -45.70741        0.6720552        41.10382
4.817                  0.6701707        40.54278       0.03785116       -46.97023       0.03785128       -46.96986        0.6701705        40.54279
4.8184                 0.6681945        39.97461         0.035754       -48.25223       0.03575413       -48.25187        0.6681943        39.97462
4.8198                 0.6661121        39.39973       0.03362419       -49.54503       0.03362433       -49.54468        0.6661119        39.39974
4.8212                 0.6639098        38.81877       0.03147479       -50.84106       0.03147494       -50.84071        0.6639097        38.81878
4.8226                 0.6615752        38.23256        0.0293198       -52.13462       0.02931994       -52.13428         0.661575        38.23257
4.824                  0.6590975        37.64207       0.02717374       -53.42312       0.02717389        -53.4228        0.6590974        37.64208
4.8254                 0.6564679        37.04844       0.02505144        -54.7085       0.02505158       -54.70818        0.6564677        37.04845
4.8268                 0.6536798        36.45291       0.02296751       -55.99963       0.02296765       -55.99933        0.6536796        36.45292
4.8282                 0.6507288        35.85683       0.02093605       -57.31561       0.02093618       -57.31531        0.6507287        35.85683
4.8296                  0.647613        35.26162       0.01897021       -58.69063       0.01897034       -58.69033        0.6476129        35.26161
4.831                  0.6443331        34.66871       0.01708195         -60.181       0.01708207       -60.18072        0.6443329        34.66871
4.8324                  0.640892        34.07955        0.0152819       -61.87543       0.01528201       -61.87515        0.6408918        34.07954
4.8338                 0.6372956        33.49555       0.01357962        -63.9099       0.01357973       -63.90963        0.6372952        33.49554
4.8352                 0.6335511        32.91806       0.01198466        -66.4893       0.01198476       -66.48902        0.6335508        32.91805
4.8366                 0.6296687        32.34834       0.01050886       -69.91765       0.01050894       -69.91734        0.6296684        32.34833
4.838                  0.6256599        31.78749      0.009171038       -74.63538      0.009171109       -74.63501        0.6256595        31.78748
4.8394                 0.6215377        31.23649      0.008005396       -81.24362      0.008005453       -81.24321        0.6215372        31.23648
4.8408                 0.6173162        30.69611      0.007073881       -90.43466      0.007073921       -90.43415        0.6173157         30.6961
4.8422                 0.6130102        30.16694      0.006476548        -102.628      0.006476567       -102.6275        0.6130098        30.16692
4.8436                 0.6086349        29.64931      0.006337573       -117.1957       0.00633757       -117.1952        0.6086344         29.6493
4.845                  0.6042051        29.14335      0.006745939       -132.0975      0.006745917       -132.0971        0.6042045        29.14335
4.8464                 0.5997349        28.64895      0.007699977       -145.1441      0.007699939       -145.1438        0.5997343        28.64895
4.8478                 0.5952374        28.16576      0.009130881        -155.461       0.00913083       -155.4608        0.5952368        28.16575
4.8492                 0.5907241        27.69319       0.01096326       -163.3289        0.0109632       -163.3288        0.5907236        27.69319
4.8506                 0.5862047        27.23047       0.01314408       -169.3892       0.01314401       -169.3891         0.586204        27.23047
4.852                   0.581686        26.77663       0.01564234       -174.2205       0.01564226       -174.2204        0.5816853        26.77664
4.8534                 0.5771726        26.33058       0.01844098       -178.2455        0.0184409       -178.2455        0.5771719        26.33059
4.8548                 0.5726661         25.8911       0.02153014        178.2484       0.02153005        178.2484        0.5726655        25.89112
4.8562                 0.5681653        25.45693       0.02490287        175.0702       0.02490277        175.0702        0.5681646        25.45695
4.8576                 0.5636655        25.02679       0.02855269        172.0937       0.02855258        172.0937        0.5636648        25.02682
4.859                   0.559159        24.59949       0.03247222        169.2355       0.03247211        169.2355        0.5591583        24.59952
4.8604                 0.5546354        24.17392       0.03665253        166.4406       0.03665242        166.4406        0.5546348        24.17396
4.8618                 0.5500814        23.74917       0.04108274        163.6725       0.04108263        163.6725        0.5500808        23.74921
4.8632                 0.5454813        23.32456       0.04574993        160.9075       0.04574981        160.9075        0.5454808         23.3246
4.8646                 0.5408175        22.89971       0.05063909        158.1304       0.05063897        158.1304        0.5408169        22.89975
4.866                  0.5360705        22.47457       0.05573321        155.3317       0.05573309        155.3317          0.53607        22.47461
4.8674                 0.5312203        22.04953       0.06101336        152.5059       0.06101323        152.5059        0.5312198        22.04958
4.8688                 0.5262462        21.62541       0.06645883        149.6501        0.0664587        149.6501        0.5262458        21.62546
4.8702                 0.5211281        21.20349       0.07204728        146.7632       0.07204715        146.7632        0.5211276        21.20354
4.8716                 0.5158465         20.7856       0.07775487        143.8454       0.07775474        143.8454         0.515846        20.78566