! TOUCHSTONE file generated by CST MICROWAVE STUDIO
! Date and time: Sat Nov 30 13:10:57 2024
! Project name: test_tuning.cst
! Parameters = {airCoaxOuterDiameter=3; chamferAngle=45; chamferWidth=24; connectorLength=10; drillingHoleDiameter=4.1; feedLength=60; flareDiameter=130; flareLength=70; gratingDistance=0; gratingGap=1.90274; outletLength=30; polarizerLength=134; probe1Diameter=1.3; probe1Distance=10; probe1Length=12; probe2Diameter=1.3; probe2Distance=0; probe2Length=12; probeLength=12; smaInnerDiameter=1.3; smaOuterDiameter=4.1; transitionCoefficient=1.33; waveguideFeedLength=30; waveguideSide=50; waveguideThickness=3; wireCount=25; wireDiameter=1.17699}
! Header version: 2024
! Port assignment regex: !\s*Touchstone port\s*([0-9]+)\s*=\s*(CST MWS port|CST DES external port|CST DES block port)\s*(.+)\s* \(\"(.*)\"\)(\s*mode\s*([0-9]+))?.*
! Touchstone port assignment:
! Touchstone port 1 = CST MWS port 1 ("Input1")
! Touchstone port 2 = CST MWS port 2 ("Input2")
# GHz S MA R 50
4.6                    0.1366761       0.7931036        0.6132631         90.1675        0.6132629        90.16748        0.1366749       0.7929194
4.6014                 0.1290339       -2.064329        0.6186615        89.22663        0.6186614         89.2266        0.1290328       -2.064484
4.6028                 0.1213448       -5.305746        0.6241919        88.26044        0.6241919        88.26041        0.1213437       -5.305875
4.6042                 0.1136493       -9.012205        0.6298382         87.2666        0.6298381         87.2666        0.1136482       -9.012314
4.6056                  0.106012       -13.28561        0.6355798        86.24304        0.6355797        86.24304         0.106011       -13.28571
4.607                 0.09853059       -18.25301        0.6413924        85.18791        0.6413922        85.18789       0.09852963        -18.2531
4.6084                0.09134826       -24.06841        0.6472477        84.09965        0.6472474        84.09965       0.09134739       -24.06851
4.6098                0.08466875       -30.90704        0.6531144        82.97709        0.6531142        82.97709       0.08466796       -30.90716
4.6112                 0.0787714       -38.94151        0.6589586        81.81937        0.6589584        81.81937        0.0787707       -38.94165
4.6126                0.07401772       -48.28499        0.6647441          80.626        0.6647439          80.626        0.0740171       -48.28516
4.614                  0.0708318       -58.89414        0.6704333        79.39679        0.6704331        79.39679        0.0708313       -58.89436
4.6154                0.06963445       -70.46477        0.6759872        78.13197         0.675987        78.13197       0.06963405       -70.46503
4.6168                0.07073337       -82.41678        0.6813669        76.83203        0.6813666        76.83204       0.07073309       -82.41705
4.6182                 0.0742244       -94.05049        0.6865333        75.49781        0.6865331        75.49781       0.07422424       -94.05073
4.6196                0.07997593       -104.7949        0.6914482        74.13041        0.6914479         74.1304       0.07997587       -104.7952
4.621                 0.08770432       -114.3573        0.6960745        72.73116        0.6960742        72.73117       0.08770435       -114.3575
4.6224                 0.0970759       -122.7018         0.700377        71.30169        0.7003767        71.30169       0.09707599       -122.7019
4.6238                 0.1077777       -129.9441        0.7043223        69.84375        0.7043221        69.84375        0.1077778       -129.9441
4.6252                 0.1195464       -136.2553          0.70788         68.3593        0.7078798         68.3593        0.1195467       -136.2554
4.6266                 0.1321711       -141.8077         0.711022        66.85039        0.7110217        66.85039        0.1321714       -141.8077
4.628                  0.1454845       -146.7509        0.7137235        65.31926        0.7137232        65.31926        0.1454849       -146.7509
4.6294                 0.1593533       -151.2071         0.715963        63.76815        0.7159626        63.76815        0.1593538       -151.2071
4.6308                  0.173669       -155.2731        0.7177223        62.19943         0.717722        62.19943        0.1736695       -155.2731
4.6322                 0.1883409       -159.0245        0.7189871        60.61543        0.7189868        60.61544        0.1883415       -159.0245
4.6336                 0.2032918         -162.52        0.7197463        59.01856         0.719746        59.01858        0.2032923       -162.5199
4.635                  0.2184535       -165.8054        0.7199926        57.41121        0.7199923        57.41122        0.2184543       -165.8053
4.6364                 0.2337659       -168.9165        0.7197221        55.79573        0.7197217        55.79574        0.2337666       -168.9165
4.6378                 0.2491737       -171.8816        0.7189345        54.17444        0.7189343        54.17444        0.2491745       -171.8815
4.6392                 0.2646265       -174.7227        0.7176331        52.54961        0.7176328        52.54962        0.2646273       -174.7227
4.6406                 0.2800775       -177.4577        0.7158237        50.92346        0.7158234        50.92347        0.2800784       -177.4577
4.642                  0.2954832        179.8994        0.7135158        49.29812        0.7135155        49.29813        0.2954841        179.8995
4.6434                 0.3108027        177.3372        0.7107214        47.67563         0.710721        47.67566        0.3108037        177.3373
4.6448                 0.3259979        174.8466         0.707455        46.05797        0.7074548        46.05798         0.325999        174.8466
4.6462                 0.3410333        172.4201        0.7037337        44.44696        0.7037335        44.44698        0.3410343        172.4201
4.6476                 0.3558755        170.0516        0.6995766        42.84436        0.6995763        42.84438        0.3558766        170.0516
4.649                  0.3704938        167.7362        0.6950044        41.25178        0.6950041        41.25181        0.3704949        167.7362
4.6504                 0.3848596          165.47        0.6900396        39.67072        0.6900393        39.67075        0.3848607        165.4699
4.6518                 0.3989467        163.2494        0.6847057        38.10256        0.6847055        38.10259        0.3989478        163.2494
4.6532                 0.4127313        161.0719        0.6790274        36.54852        0.6790272        36.54854        0.4127323        161.0719
4.6546                 0.4261916        158.9352        0.6730298        35.00969        0.6730296        35.00972        0.4261927        158.9352
4.656                  0.4393087        156.8374        0.6667387        33.48704        0.6667384        33.48707        0.4393097        156.8374
4.6574                 0.4520653         154.777        0.6601795        31.98137        0.6601793        31.98139        0.4520663        154.7769
4.6588                 0.4644468        152.7526         0.653378        30.49333        0.6533777        30.49336        0.4644477        152.7525
4.6602                 0.4764406        150.7632         0.646359        29.02346        0.6463589        29.02348        0.4764416        150.7632
4.6616                 0.4880365        148.8079        0.6391472        27.57212        0.6391471        27.57215        0.4880374        148.8079
4.663                  0.4992262        146.8859        0.6317661        26.13955         0.631766        26.13957         0.499227        146.8859
4.6644                 0.5100034        144.9966         0.624238        24.72584        0.6242379        24.72588        0.5100042        144.9965
4.6658                  0.520364        143.1392         0.616584        23.33098        0.6165839        23.33102        0.5203647        143.1392
4.6672                 0.5303057        141.3134        0.6088239        21.95482        0.6088238        21.95486        0.5303063        141.3134
4.6686                 0.5398275        139.5186        0.6009757        20.59711        0.6009756        20.59714        0.5398282        139.5186
4.67                   0.5489308        137.7544        0.5930559        19.25749        0.5930558        19.25753        0.5489314        137.7543
4.6714                 0.5576179        136.0203        0.5850793        17.93556        0.5850792        17.93559        0.5576185        136.0203
4.6728                 0.5658926        134.3159        0.5770587        16.63082        0.5770586        16.63085        0.5658933        134.3159
4.6742                 0.5737603        132.6408        0.5690055        15.34273        0.5690053        15.34277        0.5737608        132.6407
4.6756                 0.5812267        130.9945         0.560929        14.07076        0.5609289        14.07079        0.5812272        130.9945
4.677                  0.5882992        129.3767        0.5528374        12.81434        0.5528373        12.81437        0.5882997        129.3766
4.6784                 0.5949858        127.7868        0.5447368        11.57294        0.5447368        11.57297        0.5949862        127.7868
4.6798                 0.6012949        126.2244        0.5366324        10.34606        0.5366323        10.34608        0.6012953        126.2244
4.6812                 0.6072354         124.689        0.5285278        9.133244        0.5285278        9.133271        0.6072358         124.689
4.6826                 0.6128171        123.1802        0.5204259         7.93414        0.5204258        7.934168        0.6128175        123.1802
4.684                  0.6180496        121.6975        0.5123284         6.74848        0.5123285        6.748505          0.61805        121.6975
4.6854                 0.6229427        120.2404        0.5042369          5.5761        0.5042368        5.576126        0.6229431        120.2404
4.6868                 0.6275065        118.8083        0.4961519        4.416967        0.4961519        4.416991        0.6275069        118.8083
4.6882                 0.6317509        117.4008        0.4880743        3.271177        0.4880743          3.2712        0.6317513        117.4008
4.6896                 0.6356859        116.0174        0.4800048        2.138969        0.4800048        2.138991        0.6356863        116.0174
4.691                  0.6393213        114.6576        0.4719444        1.020723        0.4719444        1.020744        0.6393217        114.6576
4.6924                 0.6426667         113.321        0.4638945     -0.08303877        0.4638945     -0.08301853        0.6426671         113.321
4.6938                 0.6457318        112.0071        0.4558571       -1.171655        0.4558572       -1.171635        0.6457321        112.0071
4.6952                 0.6485257        110.7155        0.4478353       -2.244335        0.4478353       -2.244316        0.6485261        110.7155
4.6966                 0.6510579        109.4458        0.4398324       -3.300173        0.4398325       -3.300154        0.6510584        109.4458
4.698                  0.6533376        108.1977        0.4318536        -4.33816        0.4318535       -4.338143        0.6533379        108.1977
4.6994                 0.6553737        106.9707        0.4239043       -5.357216        0.4239043       -5.357199        0.6553741        106.9707
4.7008                 0.6571754        105.7646        0.4159915       -6.356201        0.4159915       -6.356201        0.6571759        105.7646
4.7022                 0.6587519        104.5791        0.4081231       -7.333953         0.408123       -7.333953        0.6587523        104.5791
4.7036                 0.6601124         103.414         0.400308       -8.289308        0.4003079       -8.289309        0.6601128         103.414
4.705                  0.6612661         102.269         0.392556       -9.221151         0.392556       -9.221124        0.6612666         102.269
4.7064                  0.662223        101.1439        0.3848778       -10.12845        0.3848778       -10.12845        0.6622232        101.1438
4.7078                 0.6629923        100.0384        0.3772848       -11.01034        0.3772847       -11.01029        0.6629926        100.0384
4.7092                 0.6635845        98.95243        0.3697885       -11.86597        0.3697885       -11.86594        0.6635849        98.95242
4.7106                 0.6640099        97.88575         0.362401       -12.69481         0.362401       -12.69479        0.6640102        97.88572
4.712                   0.664279        96.83813        0.3551343       -13.49657        0.3551342       -13.49654        0.6642793         96.8381
4.7134                 0.6644029        95.80936        0.3479999       -14.27117        0.3479999       -14.27114        0.6644032        95.80936
4.7148                 0.6643927        94.79913        0.3410091       -15.01888        0.3410091       -15.01885        0.6643929        94.79913
4.7162                 0.6642598        93.80724        0.3341721       -15.74026        0.3341721       -15.74024          0.66426        93.80724
4.7176                 0.6640158        92.83329        0.3274982       -16.43627        0.3274982       -16.43624        0.6640159        92.83329
4.719                  0.6636721        91.87692        0.3209951       -17.10817        0.3209951       -17.10814        0.6636722        91.87687
4.7204                 0.6632405        90.93762        0.3146691       -17.75761        0.3146691       -17.75758        0.6632405        90.93762
4.7218                 0.6627322        90.01496        0.3085246       -18.38655        0.3085246       -18.38652        0.6627321        90.01494
4.7232                 0.6621584         89.1083        0.3025641        -18.9973        0.3025641       -18.99727        0.6621583         89.1083
4.7246                 0.6615298        88.21704        0.2967877        -19.5924        0.2967877       -19.59237        0.6615296        88.21704
4.726                  0.6608566        87.34045        0.2911937       -20.17465        0.2911937       -20.17462        0.6608564        87.34045
4.7274                  0.660148        86.47772         0.285778       -20.74698         0.285778       -20.74695        0.6601479        86.47772
4.7288                  0.659413        85.62798        0.2805342       -21.31242        0.2805342       -21.31239        0.6594128        85.62798
4.7302                 0.6586591        84.79036        0.2754542       -21.87402        0.2754543       -21.87398        0.6586589        84.79036
4.7316                 0.6578928         83.9639        0.2705279       -22.43473         0.270528        -22.4347        0.6578925         83.9639
4.733                  0.6571196        83.14751        0.2657434        -22.9974        0.2657435       -22.99737        0.6571193        83.14757
4.7344                 0.6563435        82.34031        0.2610876       -23.56458        0.2610877       -23.56455        0.6563433        82.34034
4.7358                 0.6555674        81.54111        0.2565462       -24.13856        0.2565464       -24.13854        0.6555672        81.54116
4.7372                 0.6547928        80.74892        0.2521045       -24.72125        0.2521046       -24.72123        0.6547926        80.74898
4.7386                 0.6540197        79.96274         0.247747       -25.31412        0.2477472       -25.31411        0.6540195        79.96282
4.74                   0.6532468        79.18157        0.2434586       -25.91817        0.2434588       -25.91816        0.6532466        79.18162
4.7414                 0.6524715        78.40441        0.2392244       -26.53389        0.2392245       -26.53388        0.6524713        78.40446
4.7428                 0.6516901        77.63035        0.2350301       -27.16124        0.2350302       -27.16124        0.6516901        77.63043
4.7442                 0.6508978        76.85871        0.2308627       -27.79966        0.2308628       -27.79966        0.6508977        76.85877
4.7456                 0.6500885        76.08864        0.2267103       -28.44805        0.2267104       -28.44806        0.6500885         76.0887
4.747                  0.6492557        75.31963        0.2225628       -29.10481        0.2225629       -29.10482        0.6492557        75.31968
4.7484                 0.6483921        74.55109        0.2184119       -29.76782         0.218412       -29.76784        0.6483922        74.55115
4.7498                 0.6474898        73.78269        0.2142511       -30.43457        0.2142512       -30.43459        0.6474901        73.78275
4.7512                 0.6465411        73.01414        0.2100762       -31.10208        0.2100763       -31.10211        0.6465414        73.01422
4.7526                 0.6455379        72.24538        0.2058852       -31.76708        0.2058854       -31.76711        0.6455382         72.2454
4.754                  0.6444723         71.4763        0.2016784       -32.42596        0.2016785         -32.426        0.6444727        71.47636
4.7554                  0.643337        70.70709         0.197458       -33.07492        0.1974581       -33.07498        0.6433374        70.70715
4.7568                 0.6421252        69.93795        0.1932287       -33.71004        0.1932288       -33.71008        0.6421257          69.938
4.7582                 0.6408308        69.16926        0.1889972       -34.32729        0.1889972       -34.32733        0.6408314        69.16929
4.7596                 0.6394489         68.4014        0.1847718       -34.92271        0.1847719       -34.92276        0.6394495        68.40143
4.761                  0.6379754        67.63487         0.180563       -35.49249         0.180563       -35.49254         0.637976        67.63493
4.7624                 0.6364078        66.87036        0.1763822       -36.03308        0.1763822       -36.03314        0.6364084        66.87038
4.7638                 0.6347446        66.10841        0.1722424       -36.54131        0.1722423       -36.54137        0.6347452        66.10844
4.7652                 0.6329858        65.34968        0.1681572        -37.0145        0.1681571       -37.01457        0.6329865        65.34974
4.7666                 0.6311331        64.59497        0.1641407       -37.45063        0.1641406        -37.4507        0.6311337        64.59499
4.768                  0.6291892        63.84483        0.1602072       -37.84845        0.1602071       -37.84852        0.6291898        63.84486
4.7694                 0.6271585        63.09998        0.1563706        -38.2076        0.1563705       -38.20766         0.627159        63.09997
4.7708                 0.6250465          62.361         0.152644       -38.52871        0.1526439       -38.52877        0.6250471          62.361
4.7722                 0.6228603        61.62842        0.1490394       -38.81352        0.1490393       -38.81358        0.6228607        61.62842
4.7736                 0.6206075        60.90273        0.1455672       -39.06494         0.145567         -39.065         0.620608        60.90271
4.775                  0.6182972        60.18423        0.1422356       -39.28702        0.1422354       -39.28708        0.6182977        60.18421
4.7764                 0.6159389        59.47318        0.1390507       -39.48498        0.1390505       -39.48502        0.6159392        59.47315
4.7778                 0.6135426        58.76966        0.1360158       -39.66507        0.1360156       -39.66511        0.6135428        58.76963
4.7792                 0.6111184        58.07363        0.1331313       -39.83451        0.1331311       -39.83454        0.6111186         58.0736
4.7806                 0.6086766        57.38492        0.1303948       -40.00122        0.1303946       -40.00125        0.6086767        57.38489
4.782                  0.6062274        56.70315        0.1278008       -40.17366        0.1278006       -40.17368        0.6062275        56.70312
4.7834                   0.60378        56.02783        0.1253408       -40.36051        0.1253406       -40.36053        0.6037801         56.0278
4.7848                 0.6013433        55.35832        0.1230039       -40.57043        0.1230037       -40.57043        0.6013432        55.35829
4.7862                 0.5989247        54.69382        0.1207768       -40.81174        0.1207765       -40.81173        0.5989246        54.69378
4.7876                 0.5965308         54.0334        0.1186439       -41.09219        0.1186437       -41.09217        0.5965306        54.03338
4.789                  0.5941663        53.37603        0.1165885       -41.41872        0.1165883       -41.41868        0.5941661        53.37601
4.7904                 0.5918348        52.72058        0.1145928       -41.79721        0.1145925       -41.79718        0.5918345        52.72057
4.7918                 0.5895376        52.06586        0.1126383       -42.23246         0.112638       -42.23242        0.5895373        52.06585
4.7932                 0.5872746        51.41061        0.1107067         -42.728        0.1107065       -42.72795        0.5872743         51.4106
4.7946                 0.5850437        50.75357        0.1087803       -43.28606        0.1087801         -43.286        0.5850433        50.75357
4.796                  0.5828406        50.09348        0.1068421       -43.90764         0.106842       -43.90758        0.5828401        50.09348
4.7974                 0.5806596        49.42911        0.1048769       -44.59251        0.1048767       -44.59245        0.5806592        49.42912
4.7988                 0.5784931        48.75932        0.1028707       -45.33931        0.1028705       -45.33923        0.5784927        48.75933
4.8002                 0.5763319        48.08304        0.1008118       -46.14557        0.1008117        -46.1455        0.5763315        48.08306
4.8016                 0.5741653        47.39933       0.09869065       -47.00796       0.09869054       -47.00788        0.5741648        47.39935
4.803                  0.5719813        46.70739       0.09649998       -47.92227       0.09649988        -47.9222         0.571981        46.70741
4.8044                 0.5697672        46.00655       0.09423498       -48.88361        0.0942349       -48.88354        0.5697669        46.00658
4.8058                 0.5675093        45.29636       0.09189333        -49.8865       0.09189324       -49.88643        0.5675089         45.2964
4.8072                 0.5651936        44.57654       0.08947512       -50.92499       0.08947503       -50.92493        0.5651933        44.57657
4.8086                 0.5628059        43.84698       0.08698288       -51.99281       0.08698281       -51.99274        0.5628057        43.84702
4.81                   0.5603321        43.10781       0.08442144       -53.08345       0.08442138       -53.08338        0.5603319        43.10785
4.8114                 0.5577588        42.35931       0.08179777       -54.19035       0.08179771       -54.19028        0.5577587        42.35935
4.8128                 0.5550728          41.602       0.07912085       -55.30704       0.07912079       -55.30697        0.5550728        41.60204
4.8142                 0.5522625        40.83654       0.07640144       -56.42732       0.07640139       -56.42726        0.5522624        40.83658
4.8156                  0.549317        40.06381       0.07365183       -57.54549       0.07365178       -57.54543         0.549317        40.06384
4.817                  0.5462274         39.2848       0.07088558       -58.65661       0.07088553       -58.65655        0.5462273        39.28484
4.8184                 0.5429858        38.50067       0.06811722       -59.75683       0.06811718       -59.75678        0.5429858        38.50071
4.8198                 0.5395865         37.7127        0.0653619       -60.84376       0.06536185        -60.8437        0.5395866        37.71273
4.8212                 0.5360259        36.92225         0.062635       -61.91693       0.06263495       -61.91687        0.5360261        36.92228
4.8226                  0.532302        36.13076       0.05995177       -62.97836       0.05995173       -62.97831         0.532302        36.13079
4.824                  0.5284149        35.33973       0.05732691        -64.0331       0.05732686       -64.03307        0.5284149        35.33975
4.8254                 0.5243667        34.55065       0.05477409       -65.08999       0.05477404       -65.08995        0.5243668        34.55067
4.8268                 0.5201616        33.76503       0.05230562       -66.16221       0.05230557       -66.16217        0.5201617        33.76504
4.8282                 0.5158057        32.98432       0.04993204       -67.26809       0.04993198       -67.26806        0.5158057        32.98433
4.8296                 0.5113065        32.20993       0.04766179       -68.43169       0.04766172       -68.43166        0.5113066        32.20992
4.831                  0.5066733        31.44312        0.0455011       -69.68329       0.04550103       -69.68326        0.5066733        31.44312
4.8324                 0.5019166        30.68509       0.04345396       -71.05986       0.04345389       -71.05981        0.5019166        30.68509
4.8338                 0.4970479        29.93687       0.04152235       -72.60506       0.04152228       -72.60502         0.497048        29.93686
4.8352                 0.4920798         29.1993       0.03970672       -74.36931       0.03970664       -74.36925        0.4920797        29.19928
4.8366                 0.4870249        28.47304       0.03800683       -76.40932       0.03800674       -76.40926        0.4870249        28.47302
4.838                  0.4818964        27.75854       0.03642289       -78.78748        0.0364228       -78.78742        0.4818962        27.75852
4.8394                 0.4767069        27.05603       0.03495706       -81.57064       0.03495697       -81.57057        0.4767067          27.056
4.8408                 0.4714686        26.36549       0.03361524       -84.82828       0.03361514        -84.8282        0.4714685        26.36546
4.8422                 0.4661931        25.68667       0.03240902       -88.62936       0.03240892       -88.62929        0.4661929        25.68664
4.8436                 0.4608904        25.01911       0.03135772       -93.03724       0.03135762       -93.03718        0.4608902        25.01908
4.845                  0.4555691         24.3621       0.03049007       -98.10186       0.03048997        -98.1018        0.4555689        24.36207
4.8464                 0.4502361        23.71473       0.02984508       -103.8485       0.02984498       -103.8485        0.4502358         23.7147
4.8478                 0.4448962        23.07591       0.02947141       -110.2644        0.0294713       -110.2643        0.4448958        23.07589
4.8492                 0.4395518        22.44443       0.02942456       -117.2854       0.02942445       -117.2853        0.4395514         22.4444
4.8506                 0.4342031        21.81893       0.02976164       -124.7899       0.02976153       -124.7898        0.4342026         21.8189
4.852                  0.4288476        21.19802       0.03053431       -132.6055       0.03053418       -132.6054        0.4288472        21.19799
4.8534                 0.4234804        20.58028       0.03178174       -140.5316       0.03178161       -140.5316          0.42348        20.58026
4.8548                 0.4180943        19.96436       0.03352583       -148.3716       0.03352571       -148.3717        0.4180938        19.96434
4.8562                 0.4126792          19.349       0.03577009       -155.9634       0.03576998       -155.9635        0.4126787        19.34899
4.8576                 0.4072234        18.73313       0.03850197       -163.1965       0.03850186       -163.1965        0.4072228        18.73311
4.859                  0.4017126         18.1159       0.04169716       -170.0139       0.04169704        -170.014        0.4017121        18.11589
4.8604                 0.3961313        17.49678       0.04532412       -176.4029         0.045324       -176.4029        0.3961308        17.49677
4.8618                 0.3904625        16.87561       0.04934778        177.6193       0.04934767        177.6192         0.390462         16.8756
4.8632                 0.3846883        16.25265       0.05373189        172.0176       0.05373178        172.0176        0.3846877        16.25265
4.8646                 0.3787902        15.62868        0.0584404        166.7498       0.05844029        166.7498        0.3787897        15.62868
4.866                  0.3727498        15.00503       0.06343798        161.7724       0.06343788        161.7724        0.3727494        15.00503
4.8674                 0.3665494        14.38365       0.06869028        157.0444       0.06869017        157.0444        0.3665489        14.38365
4.8688                  0.360172        13.76716       0.07416366        152.5289       0.07416356        152.5289        0.3601715        13.76716
4.8702                 0.3536024        13.15895       0.07982518        148.1937       0.07982509        148.1937        0.3536019        13.15896
4.8716                 0.3468274        12.56319       0.08564236        144.0116       0.08564225        144.0116         0.346827        12.56319