! TOUCHSTONE file generated by CST MICROWAVE STUDIO
! Date and time: Sat Nov 30 13:10:57 2024
! Project name: test_tuning.cst
! Parameters = {airCoaxOuterDiameter=3; chamferAngle=45; chamferWidth=24; connectorLength=10; drillingHoleDiameter=4.1; feedLength=60; flareDiameter=130; flareLength=70; gratingDistance=0; gratingGap=1.90274; outletLength=30; polarizerLength=134; probe1Diameter=1.3; probe1Distance=11; probe1Length=12; probe2Diameter=1.3; probe2Distance=0; probe2Length=12; probeLength=12; smaInnerDiameter=1.3; smaOuterDiameter=4.1; transitionCoefficient=1.33; waveguideFeedLength=30; waveguideSide=50; waveguideThickness=3; wireCount=25; wireDiameter=1.17699}
! Header version: 2024
! Port assignment regex: !\s*Touchstone port\s*([0-9]+)\s*=\s*(CST MWS port|CST DES external port|CST DES block port)\s*(.+)\s* \(\"(.*)\"\)(\s*mode\s*([0-9]+))?.*
! Touchstone port assignment:
! Touchstone port 1 = CST MWS port 1 ("Input1")
! Touchstone port 2 = CST MWS port 2 ("Input2")
# GHz S MA R 50
4.6                   0.05237755        -57.7924        0.6227397        82.41364        0.6227398        82.41367       0.05237762        -57.7924
4.6014                0.05221027       -67.95911         0.627152        81.48391        0.6271522        81.48394       0.05221036       -67.95915
4.6028                0.05352515       -78.20704        0.6316256        80.53003        0.6316257        80.53003       0.05352527        -78.2071
4.6042                0.05632822       -88.03448        0.6361398         79.5504        0.6361399         79.5504       0.05632838       -88.03455
4.6056                0.06052425       -97.07118        0.6406704        78.54378        0.6406705        78.54378       0.06052445       -97.07126
4.607                 0.06595726       -105.1407        0.6451913        77.50912        0.6451914        77.50914       0.06595748       -105.1408
4.6084                0.07245452       -112.2317        0.6496739        76.44577        0.6496739        76.44578       0.07245479       -112.2317
4.6098                 0.0798557       -118.4311         0.654088        75.35329        0.6540881         75.3533       0.07985601       -118.4312
4.6112                 0.0880249       -123.8659        0.6584026        74.23159        0.6584026        74.23159       0.08802526        -123.866
4.6126                0.09685196       -128.6666        0.6625856        73.08089        0.6625855        73.08089       0.09685236       -128.6667
4.614                  0.1062487       -132.9509        0.6666051        71.90166         0.666605        71.90166        0.1062491       -132.9509
4.6154                  0.116144       -136.8179        0.6704294        70.69467        0.6704295        70.69468        0.1161444       -136.8179
4.6168                 0.1264795       -140.3486         0.674028        69.46094         0.674028        69.46094          0.12648       -140.3486
4.6182                  0.137206       -143.6078        0.6773713        68.20174        0.6773712        68.20174        0.1372065       -143.6079
4.6196                 0.1482805       -146.6472        0.6804315        66.91847        0.6804313        66.91847        0.1482811       -146.6472
4.621                  0.1596646       -149.5076        0.6831829        65.61281        0.6831827        65.61281        0.1596652       -149.5076
4.6224                 0.1713228       -152.2215        0.6856021        64.28651        0.6856019        64.28652        0.1713234       -152.2215
4.6238                 0.1832217       -154.8147        0.6876684         62.9415        0.6876683         62.9415        0.1832223       -154.8147
4.6252                 0.1953294       -157.3076         0.689364        61.57979        0.6893638        61.57979        0.1953301       -157.3076
4.6266                 0.2076151       -159.7166        0.6906738        60.20347        0.6906736        60.20347        0.2076158       -159.7166
4.628                  0.2200486       -162.0548        0.6915865        58.81466        0.6915862        58.81467        0.2200494       -162.0548
4.6294                 0.2326005       -164.3326         0.692093        57.41556        0.6920927        57.41557        0.2326013       -164.3327
4.6308                 0.2452419       -166.5586        0.6921884        56.00831         0.692188        56.00833        0.2452427       -166.5586
4.6322                 0.2579445       -168.7394        0.6918703         54.5951          0.69187         54.5951        0.2579453       -168.7395
4.6336                 0.2706806       -170.8805        0.6911398        53.17804        0.6911394        53.17804        0.2706814       -170.8805
4.635                  0.2834231       -172.9862        0.6900008        51.75922        0.6900005        51.75922        0.2834239       -172.9863
4.6364                 0.2961457         -175.06        0.6884602        50.34062        0.6884599        50.34064        0.2961466       -175.0601
4.6378                 0.3088231       -177.1048        0.6865278         48.9242        0.6865273        48.92421         0.308824       -177.1048
4.6392                 0.3214306       -179.1226        0.6842151        47.51177        0.6842149        47.51178        0.3214315       -179.1226
4.6406                 0.3339446        178.8847        0.6815371        46.10505        0.6815368        46.10505        0.3339456        178.8847
4.642                  0.3463428        176.9158        0.6785098        44.70561        0.6785095        44.70562        0.3463438        176.9157
4.6434                 0.3586039        174.9695        0.6751512        43.31493        0.6751508        43.31495        0.3586048        174.9694
4.6448                 0.3707075         173.045         0.671481         41.9343        0.6714806        41.93433        0.3707084        173.0449
4.6462                 0.3826349        171.1416        0.6675198        40.56489        0.6675194         40.5649        0.3826358        171.1416
4.6476                 0.3943685         169.259        0.6632889        39.20766        0.6632886        39.20768        0.3943695        169.2589
4.649                  0.4058922        167.3966        0.6588106        37.86345        0.6588104        37.86348        0.4058931        167.3966
4.6504                 0.4171909        165.5543         0.654107        36.53291        0.6541067        36.53294        0.4171918        165.5543
4.6518                 0.4282512        163.7319        0.6492003        35.21651           0.6492        35.21654        0.4282521        163.7318
4.6532                 0.4390609        161.9291         0.644112        33.91455        0.6441117        33.91458        0.4390618        161.9291
4.6546                 0.4496093        160.1459        0.6388633        32.62716         0.638863        32.62719        0.4496101        160.1459
4.656                  0.4598867        158.3822        0.6334744         31.3543         0.633474        31.35433        0.4598875        158.3822
4.6574                 0.4698849         156.638         0.627964        30.09577        0.6279637         30.0958        0.4698858        156.6379
4.6588                  0.479597         154.913        0.6223497        28.85122        0.6223495        28.85125        0.4795979         154.913
4.6602                 0.4890171        153.2075        0.6166474        27.62017        0.6166472         27.6202        0.4890179        153.2074
4.6616                 0.4981403        151.5211        0.6108714        26.40202        0.6108711        26.40205        0.4981411        151.5211
4.663                   0.506963        149.8539        0.6050338        25.19607        0.6050336         25.1961        0.5069638        149.8539
4.6644                 0.5154825        148.2058         0.599145        24.00151        0.5991449        24.00154        0.5154833        148.2057
4.6658                 0.5236968        146.5766        0.5932136        22.81752        0.5932134        22.81755        0.5236974        146.5766
4.6672                 0.5316047        144.9662         0.587246         21.6432        0.5872458        21.64323        0.5316053        144.9662
4.6686                 0.5392058        143.3746        0.5812467        20.47767        0.5812465         20.4777        0.5392065        143.3745
4.67                   0.5465004        141.8014        0.5752185        19.32004        0.5752183        19.32008        0.5465011        141.8014
4.6714                 0.5534892        140.2467        0.5691625        18.16948        0.5691623        18.16952        0.5534898        140.2466
4.6728                 0.5601733        138.7101        0.5630783        17.02522        0.5630782        17.02525         0.560174          138.71
4.6742                 0.5665544        137.1915        0.5569641        15.88656        0.5569639         15.8866        0.5665549        137.1914
4.6756                 0.5726344        135.6907        0.5508171        14.75293         0.550817        14.75297        0.5726348        135.6907
4.677                  0.5784154        134.2076        0.5446335        13.62388        0.5446334        13.62392        0.5784159        134.2076
4.6784                 0.5838999         132.742        0.5384092        12.49909        0.5384091        12.49913        0.5839003        132.7419
4.6798                 0.5890905        131.2936        0.5321395        11.37843        0.5321393        11.37847         0.589091        131.2936
4.6812                   0.59399        129.8624        0.5258195         10.2619        0.5258194        10.26194        0.5939906        129.8624
4.6826                 0.5986016        128.4482         0.519445        9.149695        0.5194448        9.149734        0.5986019        128.4481
4.684                  0.6029281        127.0508        0.5130116         8.04219        0.5130115         8.04223        0.6029284        127.0508
4.6854                 0.6069729        125.6702        0.5065162        6.939925        0.5065161        6.939965        0.6069733        125.6702
4.6868                 0.6107396        124.3064        0.4999563        5.843614        0.4999562        5.843655          0.61074        124.3064
4.6882                  0.614232        122.9592        0.4933304        4.754136        0.4933304        4.754177        0.6142324        122.9592
4.6896                  0.617454        121.6287        0.4866387        3.672519        0.4866387        3.672562        0.6174545        121.6287
4.691                    0.62041        120.3148        0.4798823        2.599931        0.4798823        2.599974        0.6204105        120.3148
4.6924                 0.6231046        119.0177        0.4730641        1.537652        0.4730642        1.537696        0.6231049        119.0177
4.6938                 0.6255427        117.7374        0.4661886       0.4870627        0.4661886       0.4871071        0.6255432        117.7374
4.6952                 0.6277301        116.4741        0.4592617      -0.5503887        0.4592617       -0.550344        0.6277305         116.474
4.6966                 0.6296727        115.2277         0.452291       -1.573209        0.4522911       -1.573164        0.6296731        115.2277
4.698                   0.631377        113.9986        0.4452858       -2.579892        0.4452858       -2.579847        0.6313774        113.9986
4.6994                 0.6328503        112.7868        0.4382565       -3.568952        0.4382565       -3.568906        0.6328508        112.7868
4.7008                 0.6341006        111.5925        0.4312151       -4.538954        0.4312152       -4.538908        0.6341009        111.5925
4.7022                 0.6351358        110.4159        0.4241747       -5.488548        0.4241748       -5.488493        0.6351363        110.4159
4.7036                 0.6359655        109.2571        0.4171494       -6.416563        0.4171495        -6.41648        0.6359658        109.2571
4.705                  0.6365992        108.1162        0.4101539       -7.321863         0.410154       -7.321807        0.6365996        108.1162
4.7064                 0.6370475        106.9935        0.4032034       -8.203617        0.4032035       -8.203589        0.6370478        106.9935
4.7078                 0.6373213        105.8889        0.3963135       -9.061259        0.3963136       -9.061205        0.6373216        105.8889
4.7092                 0.6374321        104.8024        0.3894995       -9.894386        0.3894996       -9.894361        0.6374325        104.8024
4.7106                  0.637392        103.7342        0.3827763       -10.70297        0.3827765       -10.70293        0.6373924        103.7342
4.712                  0.6372135         102.684        0.3761582       -11.48725        0.3761584       -11.48721        0.6372138         102.684
4.7134                 0.6369091        101.6517        0.3696584       -12.24782        0.3696586       -12.24778        0.6369095        101.6516
4.7148                 0.6364919         100.637        0.3632888       -12.98562        0.3632889       -12.98559        0.6364922         100.637
4.7162                 0.6359745        99.63968        0.3570596       -13.70194        0.3570597       -13.70191        0.6359748        99.63968
4.7176                 0.6353698         98.6593        0.3509792       -14.39837        0.3509794       -14.39834        0.6353701        98.65928
4.719                  0.6346902        97.69528         0.345054       -15.07685        0.3450542       -15.07682        0.6346904        97.69528
4.7204                 0.6339478        96.74706        0.3392881       -15.73955        0.3392883       -15.73952         0.633948        96.74704
4.7218                 0.6331538        95.81393        0.3336832       -16.38891        0.3336834       -16.38889        0.6331541        95.81393
4.7232                 0.6323191        94.89512        0.3282387       -17.02754         0.328239       -17.02752        0.6323193        94.89509
4.7246                 0.6314532        93.98972        0.3229517       -17.65815        0.3229519       -17.65814        0.6314534        93.98972
4.726                  0.6305648        93.09679        0.3178167       -18.28353        0.3178169       -18.28351         0.630565        93.09679
4.7274                 0.6296614        92.21531        0.3128263       -18.90642        0.3128265       -18.90641        0.6296615        92.21531
4.7288                  0.628749        91.34423        0.3079708       -19.52949         0.307971       -19.52949        0.6287491        91.34423
4.7302                 0.6278325        90.48245        0.3032393       -20.15524        0.3032395       -20.15524        0.6278326        90.48245
4.7316                 0.6269151         89.6288        0.2986189       -20.78592         0.298619       -20.78591        0.6269151         89.6288
4.733                  0.6259987         88.7822        0.2940958       -21.42349         0.294096       -21.42349        0.6259987         88.7822
4.7344                 0.6250837        87.94147        0.2896556       -22.06959        0.2896557       -22.06959        0.6250837        87.94147
4.7358                 0.6241688        87.10558        0.2852833       -22.72541        0.2852833       -22.72541        0.6241689        87.10558
4.7372                 0.6232518        86.27343        0.2809639       -23.39175         0.280964       -23.39176        0.6232518        86.27343
4.7386                 0.6223287         85.4441        0.2766829       -24.06896         0.276683       -24.06897        0.6223288        85.44413
4.74                   0.6213947        84.61669        0.2724264       -24.75691        0.2724265       -24.75691        0.6213948        84.61672
4.7414                 0.6204437        83.79041        0.2681817         -25.455        0.2681817       -25.45501        0.6204437        83.79041
4.7428                 0.6194688        82.96449        0.2639371        -26.1622        0.2639372        -26.1622        0.6194688        82.96449
4.7442                 0.6184624        82.13845         0.259683       -26.87702         0.259683       -26.87702        0.6184624        82.13845
4.7456                 0.6174166        81.31179         0.255411       -27.59757         0.255411       -27.59757        0.6174165        81.31182
4.747                  0.6163227        80.48427        0.2511154       -28.32159        0.2511153       -28.32159        0.6163227        80.48427
4.7484                 0.6151725        79.65561         0.246792       -29.04647        0.2467919       -29.04647        0.6151726        79.65566
4.7498                 0.6139577        78.82588        0.2424391       -29.76935        0.2424391       -29.76934        0.6139578        78.82591
4.7512                 0.6126703        77.99511        0.2380572       -30.48711        0.2380572        -30.4871        0.6126703        77.99513
4.7526                 0.6113029        77.16353        0.2336492       -31.19648        0.2336492       -31.19647         0.611303        77.16356
4.754                   0.609849        76.33146        0.2292198       -31.89409        0.2292198       -31.89408         0.609849        76.33149
4.7554                 0.6083026        75.49935         0.224776       -32.57655         0.224776       -32.57653        0.6083027        75.49937
4.7568                 0.6066593        74.66775        0.2203267       -33.24052        0.2203267        -33.2405        0.6066594         74.6678
4.7582                 0.6049156        73.83727        0.2158824       -33.88281        0.2158824       -33.88278        0.6049156        73.83727
4.7596                 0.6030692        73.00854        0.2114551       -34.50045        0.2114551       -34.50041        0.6030694        73.00857
4.761                  0.6011196        72.18234        0.2070581        -35.0908        0.2070581       -35.09076        0.6011197        72.18236
4.7624                 0.5990674        71.35939        0.2027054       -35.65169        0.2027054       -35.65164        0.5990675        71.35941
4.7638                 0.5969147        70.54047        0.1984117       -36.18141        0.1984117       -36.18137        0.5969148        70.54047
4.7652                 0.5946652        69.72625        0.1941917       -36.67894        0.1941918        -36.6789        0.5946654        69.72628
4.7666                 0.5923237        68.91753          0.19006       -37.14395        0.1900601        -37.1439        0.5923238        68.91756
4.768                  0.5898965        68.11491        0.1860305        -37.5769        0.1860306       -37.57685        0.5898966        68.11493
4.7694                 0.5873909        67.31898        0.1821159       -37.97913         0.182116       -37.97909         0.587391        67.31898
4.7708                 0.5848153         66.5302        0.1783275       -38.35289        0.1783276       -38.35284        0.5848155         66.5302
4.7722                  0.582179         65.7489        0.1746748       -38.70132         0.174675       -38.70127        0.5821791         65.7489
4.7736                 0.5794918        64.97542        0.1711651       -39.02847        0.1711653       -39.02843         0.579492        64.97542
4.775                  0.5767641        64.20978        0.1678032       -39.33924        0.1678034        -39.3392        0.5767642        64.20978
4.7764                 0.5740062        63.45196         0.164591       -39.63924        0.1645912       -39.63921        0.5740063        63.45198
4.7778                 0.5712286        62.70177        0.1615279       -39.93472        0.1615281       -39.93469        0.5712288        62.70177
4.7792                 0.5684415         61.9588        0.1586101       -40.23235        0.1586103       -40.23233        0.5684416         61.9588
4.7806                 0.5656545        61.22253        0.1558312       -40.53908        0.1558314       -40.53905        0.5656545        61.22254
4.782                   0.562876        60.49231        0.1531819       -40.86188        0.1531821       -40.86186         0.562876        60.49231
4.7834                  0.560114        59.76726        0.1506506       -41.20759        0.1506509       -41.20758         0.560114        59.76726
4.7848                 0.5573747        59.04643        0.1482236       -41.58265        0.1482238       -41.58265        0.5573747        59.04643
4.7862                 0.5546633        58.32873        0.1458853         -41.993        0.1458855         -41.993        0.5546633        58.32873
4.7876                 0.5519833        57.61295         0.143619        -42.4438        0.1436192       -42.44382        0.5519832        57.61295
4.789                  0.5493363        56.89781        0.1414069       -42.93943        0.1414071       -42.93946        0.5493362        56.89781
4.7904                 0.5467221        56.18201        0.1392312       -43.48333        0.1392314       -43.48336         0.546722        56.18202
4.7918                 0.5441392        55.46418         0.137074       -44.07792        0.1370742       -44.07796         0.544139        55.46419
4.7932                 0.5415836        54.74298         0.134918       -44.72466        0.1349182        -44.7247        0.5415833        54.74299
4.7946                 0.5390499        54.01709         0.132747       -45.42398        0.1327472       -45.42402        0.5390496         54.0171
4.796                   0.536531        53.28527        0.1305461       -46.17537        0.1305462       -46.17543        0.5365307        53.28528
4.7974                  0.534018        52.54634         0.128302       -46.97745        0.1283021       -46.97751        0.5340179        52.54634
4.7988                 0.5315012        51.79924        0.1260035       -47.82795        0.1260036       -47.82802        0.5315009        51.79925
4.8002                 0.5289689        51.04306        0.1236413       -48.72394        0.1236414       -48.72401        0.5289686        51.04308
4.8016                  0.526409        50.27706        0.1212087       -49.66178        0.1212089       -49.66185        0.5264086        50.27708
4.803                  0.5238084        49.50064        0.1187012       -50.63731        0.1187013        -50.6374        0.5238081        49.50067
4.8044                 0.5211537        48.71342        0.1161166       -51.64593        0.1161167       -51.64601        0.5211534        48.71344
4.8058                 0.5184313        47.91518        0.1134553       -52.68269        0.1134554       -52.68277         0.518431         47.9152
4.8072                 0.5156275        47.10592          0.11072       -53.74237          0.11072       -53.74245        0.5156272        47.10595
4.8086                 0.5127292        46.28586        0.1079156       -54.81968        0.1079156       -54.81976        0.5127289        46.28589
4.81                   0.5097237         45.4554        0.1050491       -55.90929        0.1050491       -55.90938        0.5097234        45.45542
4.8114                 0.5065993        44.61511        0.1021297       -57.00606        0.1021297       -57.00614         0.506599        44.61514
4.8128                 0.5033455        43.76579       0.09916802       -58.10509       0.09916801       -58.10517        0.5033451        43.76583
4.8142                 0.4999528        42.90837       0.09617646       -59.20202       0.09617643       -59.20211        0.4999525        42.90841
4.8156                 0.4964136        42.04396       0.09316852       -60.29316       0.09316849       -60.29322        0.4964133          42.044
4.817                  0.4927216        41.17377       0.09015869       -61.37571       0.09015864       -61.37578        0.4927213         41.1738
4.8184                 0.4888724        40.29915       0.08716203       -62.44814       0.08716199        -62.4482        0.4888721        40.29919
4.8198                 0.4848635        39.42154       0.08419384       -63.51036       0.08419379       -63.51042        0.4848632        39.42158
4.8212                 0.4806942        38.54244       0.08126925       -64.56418        0.0812692       -64.56423        0.4806939        38.54247
4.8226                 0.4763655        37.66336       0.07840286       -65.61354        0.0784028       -65.61359        0.4763653         37.6634
4.824                  0.4718808        36.78588       0.07560824       -66.66495       0.07560818       -66.66501        0.4718805        36.78592
4.8254                 0.4672447        35.91152       0.07289762       -67.72785       0.07289757        -67.7279        0.4672444        35.91156
4.8268                 0.4624636        35.04177       0.07028149       -68.81488       0.07028142       -68.81494        0.4624634        35.04181
4.8282                 0.4575456        34.17805       0.06776827       -69.94211        0.0677682       -69.94215        0.4575454        34.17809
4.8296                 0.4525001        33.32168       0.06536412       -71.12925       0.06536406       -71.12927        0.4524999        33.32172
4.831                  0.4473375        32.47385       0.06307288       -72.39967       0.06307283        -72.3997        0.4473373        32.47389
4.8324                 0.4420692         31.6356       0.06089607       -73.78037       0.06089602       -73.78038        0.4420691        31.63563
4.8338                 0.4367072        30.80779       0.05883316       -75.30169       0.05883312       -75.30171         0.436707        30.80782
4.8352                 0.4312637        29.99108       0.05688202       -76.99714       0.05688197       -76.99716        0.4312635        29.99111
4.8366                 0.4257511        29.18593       0.05503953       -78.90293       0.05503949       -78.90294        0.4257509        29.18596
4.838                  0.4201815        28.39254       0.05330252       -81.05744       0.05330247       -81.05747        0.4201814        28.39256
4.8394                 0.4145664        27.61089       0.05166874       -83.50081       0.05166871       -83.50081        0.4145662        27.61091
4.8408                 0.4089164         26.8407       0.05013817       -86.27403       0.05013813       -86.27403        0.4089162        26.84072
4.8422                 0.4032409        26.08146       0.04871422        -89.4182       0.04871418        -89.4182        0.4032407        26.08148
4.8436                 0.3975479        25.33243       0.04740523        -92.9731        0.0474052       -92.97312        0.3975477        25.33244
4.845                  0.3918436        24.59261       0.04622573       -96.97521        0.0462257       -96.97522        0.3918434        24.59262
4.8464                 0.3861325        23.86085       0.04519756       -101.4548       0.04519754       -101.4548        0.3861322        23.86087
4.8478                 0.3804166        23.13582       0.04435058        -106.432       0.04435055        -106.432        0.3804163        23.13583
4.8492                 0.3746961        22.41604       0.04372265       -111.9116       0.04372263       -111.9116        0.3746958        22.41605
4.8506                 0.3689685        21.69998       0.04335863       -117.8772       0.04335861       -117.8772        0.3689683        21.69999
4.852                  0.3632294        20.98607       0.04330811       -124.2865       0.04330809       -124.2865        0.3632291        20.98607
4.8534                 0.3574716        20.27275       0.04362173       -131.0687       0.04362171       -131.0687        0.3574713        20.27276
4.8548                 0.3516861        19.55858        0.0443466       -138.1264       0.04434658       -138.1264        0.3516857        19.55859
4.8562                 0.3458616        18.84227       0.04552148       -145.3436       0.04552146       -145.3436        0.3458613        18.84227
4.8576                 0.3399852        18.12274       0.04717278       -152.5979       0.04717276       -152.5979        0.3399848        18.12274
4.859                  0.3340421        17.39924       0.04931235       -159.7746       0.04931234       -159.7746        0.3340417        17.39924
4.8604                 0.3280165        16.67138       0.05193738       -166.7784       0.05193737       -166.7784        0.3280161        16.67138
4.8618                 0.3218915        15.93922       0.05503214       -173.5401       0.05503213       -173.5401        0.3218911        15.93922
4.8632                 0.3156498        15.20334       0.05857077        179.9822       0.05857076        179.9822        0.3156494        15.20334
4.8646                  0.309274        14.46493       0.06252037        173.8067       0.06252037        173.8067        0.3092736        14.46494
4.866                   0.302747        13.72588       0.06684372        167.9329        0.0668437        167.9328        0.3027465        13.72589
4.8674                 0.2960525        12.98881       0.07150135        162.3476       0.07150134        162.3476         0.296052        12.98881
4.8688                 0.2891754        12.25721       0.07645303        157.0304       0.07645303        157.0303        0.2891749        12.25722
4.8702                 0.2821026        11.53554       0.08165861        151.9569        0.0816586        151.9569         0.282102        11.53555
4.8716                 0.2748229        10.82932       0.08707856        147.1021       0.08707855        147.1021        0.2748224        10.82933