! TOUCHSTONE file generated by CST MICROWAVE STUDIO
! Date and time: Sat Nov 30 13:10:56 2024
! Project name: test_tuning.cst
! Parameters = {airCoaxOuterDiameter=3; chamferAngle=45; chamferWidth=24; connectorLength=10; drillingHoleDiameter=4.1; feedLength=60; flareDiameter=130; flareLength=70; gratingDistance=0; gratingGap=1.90274; outletLength=30; polarizerLength=134; probe1Diameter=1.3; probe1Distance=8.5; probe1Length=12; probe2Diameter=1.3; probe2Distance=0; probe2Length=12; probeLength=12; smaInnerDiameter=1.3; smaOuterDiameter=4.1; transitionCoefficient=1.33; waveguideFeedLength=30; waveguideSide=50; waveguideThickness=3; wireCount=25; wireDiameter=1.17699}
! Header version: 2024
! Port assignment regex: !\s*Touchstone port\s*([0-9]+)\s*=\s*(CST MWS port|CST DES external port|CST DES block port)\s*(.+)\s* \(\"(.*)\"\)(\s*mode\s*([0-9]+))?.*
! Touchstone port assignment:
! Touchstone port 1 = CST MWS port 1 ("Input1")
! Touchstone port 2 = CST MWS port 2 ("Input2")
# GHz S MA R 50
4.6                    0.3416415        26.00706        0.5593996        105.3484        0.5593996        105.3484        0.3416404        26.00677
4.6014                 0.3340049        24.75231         0.566333        104.5106         0.566333        104.5105        0.3340037        24.75202
4.6028                 0.3260194        23.39888        0.5736568         103.644        0.5736567        103.6439        0.3260181        23.39859
4.6042                 0.3176313        21.93879        0.5813675        102.7429        0.5813674        102.7428        0.3176298        21.93851
4.6056                 0.3087884        20.36374        0.5894527        101.8018        0.5894525        101.8018        0.3087869        20.36348
4.607                  0.2994421        18.66489        0.5978907        100.8159        0.5978903        100.8158        0.2994405        18.66464
4.6084                  0.289548        16.83236        0.6066508         99.7805        0.6066504        99.78043        0.2895464        16.83212
4.6098                  0.279068        14.85477        0.6156945        98.69178        0.6156942        98.69173        0.2790663        14.85454
4.6112                 0.2679709        12.71846        0.6249758        97.54659        0.6249753        97.54653        0.2679691        12.71825
4.6126                 0.2562344        10.40652        0.6344413        96.34249        0.6344409        96.34243        0.2562326        10.40631
4.614                  0.2438464        7.897365        0.6440329        95.07776        0.6440323        95.07771        0.2438446        7.897166
4.6154                 0.2308068        5.162861         0.653687        93.75146        0.6536864        93.75141        0.2308051        5.162671
4.6168                 0.2171303        2.165496        0.6633369        92.36334        0.6633363         92.3633        0.2171286        2.165311
4.6182                 0.2028493       -1.145676        0.6729136        90.91379        0.6729128        90.91375        0.2028475        -1.14586
4.6196                 0.1880192       -4.841147        0.6823465        89.40385        0.6823457        89.40382        0.1880174       -4.841334
4.621                  0.1727262       -9.020226        0.6915649        87.83505        0.6915643        87.83504        0.1727246       -9.020422
4.6224                 0.1571005        -13.8253        0.7004992        86.20943        0.7004985        86.20941        0.1570989       -13.82551
4.6238                 0.1413374       -19.46355        0.7090812        84.52941        0.7090804        84.52939        0.1413358       -19.46381
4.6252                  0.125735       -26.23857        0.7172453        82.79776        0.7172447        82.79774        0.1257335       -26.23887
4.6266                  0.110758       -34.58892        0.7249295        81.01751        0.7249287         81.0175        0.1107566       -34.58931
4.628                 0.09713905       -45.10659        0.7320753        79.19188        0.7320746        79.19188       0.09713776       -45.10712
4.6294                0.08600681       -58.43024        0.7386293        77.32432        0.7386286        77.32432       0.08600574       -58.43096
4.6308                0.07891377       -74.78242        0.7445426        75.41831        0.7445419        75.41831       0.07891297       -74.78332
4.6322                0.07743504       -93.13776        0.7497718        73.47743         0.749771        73.47744       0.07743461       -93.13877
4.6336                0.08224827       -111.1476         0.754279        71.50528        0.7542783        71.50529       0.08224821       -111.1486
4.635                 0.09265382       -126.7389         0.758032        69.50546        0.7580315        69.50547       0.09265402       -126.7397
4.6364                 0.1072238       -139.3191        0.7610047        67.48156         0.761004        67.48159        0.1072242       -139.3198
4.6378                 0.1246228       -149.3074        0.7631761        65.43712        0.7631755        65.43713        0.1246234        -149.308
4.6392                 0.1438879       -157.3563        0.7645316        63.37556         0.764531        63.37559        0.1438885       -157.3567
4.6406                 0.1643789       -164.0166        0.7650617        61.30032        0.7650613        61.30035        0.1643795        -164.017
4.642                  0.1856694       -169.6857         0.764763         59.2147        0.7647625        59.21472          0.18567        -169.686
4.6434                 0.2074644       -174.6367        0.7636365        57.12188         0.763636        57.12191        0.2074651        -174.637
4.6448                 0.2295494       -179.0566        0.7616886        55.02502        0.7616882        55.02505        0.2295501       -179.0568
4.6462                 0.2517602        176.9253        0.7589305        52.92714        0.7589301        52.92717        0.2517609        176.9251
4.6476                 0.2739651         173.218        0.7553775        50.83118        0.7553772        50.83121        0.2739657        173.2179
4.649                  0.2960547        169.7565        0.7510493        48.73997        0.7510491           48.74        0.2960554        169.7564
4.6504                 0.3179356        166.4934        0.7459691        46.65628        0.7459689        46.65631        0.3179362        166.4933
4.6518                  0.339526        163.3937        0.7401639        44.58276        0.7401638        44.58279        0.3395266        163.3936
4.6532                 0.3607537        160.4309        0.7336636          42.522        0.7336636        42.52204        0.3607542        160.4308
4.6546                 0.3815543        157.5852         0.726501        40.47651         0.726501        40.47654        0.3815548        157.5851
4.656                  0.4018702        154.8411        0.7187117        38.44868        0.7187116        38.44872        0.4018707         154.841
4.6574                 0.4216501        152.1869        0.7103331        36.44087        0.7103331         36.4409        0.4216506        152.1868
4.6588                 0.4408482        149.6132        0.7014047        34.45533        0.7014048        34.45536        0.4408487        149.6132
4.6602                 0.4594242        147.1129         0.691968        32.49424         0.691968        32.49426        0.4594246        147.1129
4.6616                 0.4773431        144.6802        0.6820651        30.55969        0.6820653        30.55972        0.4773435        144.6802
4.663                   0.494575        142.3107          0.67174         28.6537        0.6717401        28.65372        0.4945754        142.3107
4.6644                 0.5110951        140.0009        0.6610366        26.77816        0.6610368        26.77817        0.5110954        140.0008
4.6658                 0.5268834        137.7479        0.6499999        24.93488             0.65         24.9349        0.5268837        137.7479
4.6672                 0.5419248        135.5497        0.6386748        23.12557        0.6386749        23.12559        0.5419252        135.5497
4.6686                 0.5562093        133.4046        0.6271059        21.35179        0.6271061        21.35181        0.5562096        133.4045
4.67                   0.5697313        131.3112        0.6153378        19.61498        0.6153379        19.61499        0.5697316        131.3112
4.6714                 0.5824901        129.2686        0.6034139        17.91641        0.6034141        17.91642        0.5824904        129.2686
4.6728                 0.5944894         127.276        0.5913767         16.2572        0.5913769        16.25721        0.5944896         127.276
4.6742                 0.6057374        125.3329        0.5792676        14.63829        0.5792678        14.63829        0.6057375        125.3328
4.6756                  0.616246        123.4386         0.567126        13.06042        0.5671261        13.06042        0.6162462        123.4386
4.677                  0.6260317        121.5929        0.5549893        11.52411        0.5549894        11.52411        0.6260318        121.5929
4.6784                 0.6351141        119.7953        0.5428931        10.02968        0.5428933        10.02968        0.6351142        119.7953
4.6798                 0.6435166        118.0455        0.5308704        8.577206        0.5308706        8.577202        0.6435166        118.0455
4.6812                 0.6512652        116.3431        0.5189512         7.16654        0.5189513        7.166534        0.6512651        116.3431
4.6826                 0.6583887        114.6877         0.507163         5.79729        0.5071632        5.797283        0.6583887        114.6877
4.684                  0.6649183        113.0786        0.4955301        4.468839        0.4955301        4.468831        0.6649183        113.0786
4.6854                 0.6708866        111.5153        0.4840735        3.180346        0.4840735        3.180337        0.6708867        111.5153
4.6868                  0.676328        109.9971        0.4728112        1.930763        0.4728112        1.930754        0.6763279        109.9971
4.6882                 0.6812772        108.5231        0.4617578       0.7188598        0.4617578         0.71885        0.6812772        108.5231
4.6896                 0.6857699        107.0923        0.4509248      -0.4567534        0.4509248      -0.4567629        0.6857699        107.0923
4.691                  0.6898413        105.7036        0.4403207        -1.59759        0.4403206       -1.597599        0.6898413        105.7036
4.6924                 0.6935259        104.3558        0.4299507       -2.705253        0.4299507       -2.705261         0.693526        104.3558
4.6938                 0.6968578        103.0475        0.4198177       -3.781392        0.4198177       -3.781399        0.6968579        103.0475
4.6952                 0.6998692        101.7772         0.409922       -4.827664        0.4099219       -4.827668        0.6998692        101.7772
4.6966                 0.7025908        100.5434        0.4002614       -5.845686        0.4002613       -5.845688        0.7025909        100.5434
4.698                  0.7050512        99.34427        0.3908324          -6.837        0.3908323       -6.836999        0.7050514        99.34429
4.6994                 0.7072767        98.17822        0.3816295       -7.803038        0.3816294       -7.803038        0.7072769        98.17825
4.7008                 0.7092912        97.04344        0.3726465        -8.74503        0.3726464        -8.74503        0.7092914        97.04347
4.7022                 0.7111157        95.93811        0.3638762       -9.664129        0.3638761        -9.66413        0.7111161        95.93815
4.7036                 0.7127691        94.86045         0.355311       -10.56116        0.3553109       -10.56116        0.7127694         94.8605
4.705                   0.714267         93.8087        0.3469433       -11.43684        0.3469432       -11.43681        0.7142673        93.80876
4.7064                 0.7156228        92.78117        0.3387657       -12.29159        0.3387657       -12.29156        0.7156233        92.78121
4.7078                 0.7168475        91.77622        0.3307715       -13.12563        0.3307714       -13.12563        0.7168479        91.77625
4.7092                 0.7179497         90.7923        0.3229545       -13.93906        0.3229544       -13.93904        0.7179501        90.79234
4.7106                 0.7189359          89.828        0.3153094       -14.73161        0.3153094       -14.73159        0.7189364        89.82803
4.712                  0.7198113        88.88203        0.3078323       -15.50306        0.3078323       -15.50303        0.7198118        88.88203
4.7134                  0.720579        87.95316        0.3005199       -16.25296        0.3005199       -16.25293        0.7205794        87.95318
4.7148                 0.7212413        87.04045        0.2933704        -16.9808        0.2933704       -16.98077        0.7212418        87.04048
4.7162                 0.7217998        86.14301        0.2863829       -17.68609        0.2863829       -17.68606        0.7218004        86.14304
4.7176                 0.7222555        85.26005        0.2795574       -18.36834        0.2795575       -18.36832         0.722256        85.26005
4.719                   0.722609          84.391         0.272895       -19.02717        0.2728951       -19.02714        0.7226095          84.391
4.7204                 0.7228612        83.53531        0.2663973       -19.66232        0.2663973       -19.66229        0.7228617        83.53531
4.7218                  0.723013        82.69267        0.2600662       -20.27376        0.2600663       -20.27374        0.7230135        82.69267
4.7232                 0.7230662        81.86273        0.2539039        -20.8617         0.253904       -20.86168        0.7230667        81.86273
4.7246                  0.723023        81.04533        0.2479128       -21.42663        0.2479129       -21.42661        0.7230235        81.04533
4.726                  0.7228865        80.24028        0.2420945       -21.96938        0.2420946       -21.96937        0.7228869        80.24028
4.7274                 0.7226606        79.44748        0.2364504       -22.49114        0.2364505       -22.49113         0.722661        79.44748
4.7288                 0.7223501        78.66684        0.2309809       -22.99344         0.230981       -22.99344        0.7223504        78.66684
4.7302                 0.7219607        77.89825        0.2256853       -23.47818        0.2256854       -23.47818         0.721961        77.89825
4.7316                 0.7214987        77.14155        0.2205618       -23.94757        0.2205619       -23.94757         0.721499        77.14155
4.733                  0.7209715        76.39662        0.2156071       -24.40412        0.2156072       -24.40413        0.7209717        76.39662
4.7344                 0.7203865        75.66323        0.2108165       -24.85059        0.2108166        -24.8506        0.7203867        75.66323
4.7358                 0.7197518        74.94117        0.2061838       -25.28986        0.2061839       -25.28987         0.719752        74.94117
4.7372                 0.7190755           74.23        0.2017013       -25.72492        0.2017014       -25.72494        0.7190756           74.23
4.7386                 0.7183657        73.52938          0.19736       -26.15875          0.19736       -26.15876        0.7183658        73.52938
4.74                   0.7176302        72.83878        0.1931494       -26.59418        0.1931494        -26.5942        0.7176303        72.83878
4.7414                 0.7168762        72.15762        0.1890583       -27.03387        0.1890582       -27.03389        0.7168763        72.15762
4.7428                 0.7161105        71.48523        0.1850744       -27.48014        0.1850744       -27.48016        0.7161105        71.48526
4.7442                 0.7153384        70.82093        0.1811852       -27.93492        0.1811852       -27.93494        0.7153386        70.82096
4.7456                 0.7145649        70.16393        0.1773777       -28.39967        0.1773776       -28.39968        0.7145651        70.16396
4.747                  0.7137932        69.51345        0.1736391       -28.87528         0.173639       -28.87529        0.7137933        69.51345
4.7484                 0.7130253        68.86863        0.1699571       -29.36207         0.169957       -29.36207        0.7130253        68.86863
4.7498                 0.7122619        68.22864          0.16632       -29.85971        0.1663198        -29.8597         0.712262        68.22867
4.7512                 0.7115023        67.59267        0.1627171       -30.36722        0.1627169       -30.36721        0.7115025         67.5927
4.7526                 0.7107446        66.95991        0.1591392       -30.88298         0.159139       -30.88296        0.7107447        66.95997
4.754                  0.7099852        66.32967        0.1555784       -31.40474        0.1555782       -31.40471        0.7099853        66.32969
4.7554                 0.7092197        65.70122        0.1520286       -31.92961        0.1520285       -31.92956        0.7092199        65.70122
4.7568                 0.7084423        65.07397        0.1484856       -32.45416        0.1484855       -32.45411        0.7084427        65.07402
4.7582                 0.7076468        64.44747        0.1449471       -32.97448        0.1449469       -32.97441        0.7076472        64.44749
4.7596                 0.7068262        63.82129        0.1414127       -33.48618        0.1414126        -33.4861        0.7068266        63.82135
4.761                  0.7059728        63.19524        0.1378842       -33.98457        0.1378841       -33.98448        0.7059732        63.19524
4.7624                  0.705079        62.56908        0.1343653        -34.4647        0.1343652        -34.4646        0.7050794        62.56908
4.7638                 0.7041374        61.94281        0.1308616       -34.92151        0.1308615       -34.92139        0.7041379        61.94281
4.7652                 0.7031406        61.31649        0.1273803       -35.34995        0.1273802       -35.34982        0.7031411        61.31654
4.7666                 0.7020824        60.69041        0.1239302       -35.74514        0.1239301       -35.74499        0.7020829        60.69041
4.768                  0.7009566         60.0648        0.1205214       -36.10254        0.1205214       -36.10238        0.7009571         60.0648
4.7694                 0.6997586        59.44005        0.1171651       -36.41813        0.1171652       -36.41796        0.6997592        59.44005
4.7708                  0.698485        58.81669        0.1138731       -36.68863        0.1138732       -36.68846        0.6984855        58.81667
4.7722                 0.6971334        58.19517        0.1106574        -36.9117        0.1106576       -36.91152        0.6971339        58.19515
4.7736                 0.6957032        57.57611        0.1075301       -37.08614        0.1075303       -37.08595        0.6957037        57.57609
4.775                   0.694195        56.96008        0.1045027       -37.21211        0.1045028       -37.21192        0.6941954        56.96005
4.7764                 0.6926112        56.34766        0.1015855       -37.29129        0.1015857        -37.2911        0.6926116        56.34763
4.7778                 0.6909552        55.73942       0.09878769       -37.32703       0.09878793       -37.32685        0.6909556        55.73937
4.7792                 0.6892325        55.13584       0.09611644       -37.32443       0.09611672       -37.32425        0.6892328         55.1358
4.7806                 0.6874492        54.53738        0.0935767       -37.29029       0.09357701       -37.29012        0.6874495        54.53734
4.782                  0.6856128         53.9444       0.09117085       -37.23308       0.09117119       -37.23293        0.6856131        53.94435
4.7834                 0.6837318        53.35714       0.08889847       -37.16271       0.08889884       -37.16257         0.683732        53.35708
4.7848                 0.6818152        52.77574       0.08675624       -37.09024       0.08675663       -37.09011        0.6818154        52.77567
4.7862                 0.6798724        52.20017       0.08473785       -37.02752       0.08473825       -37.02742        0.6798724        52.20012
4.7876                 0.6779129        51.63033       0.08283421       -36.98677       0.08283462        -36.9867        0.6779129        51.63027
4.789                  0.6759461        51.06591       0.08103364       -36.98011       0.08103407       -36.98006         0.675946        51.06585
4.7904                  0.673981        50.50648       0.07932229       -37.01909       0.07932273       -37.01906        0.6739807        50.50642
4.7918                 0.6720253        49.95148       0.07768455       -37.11427       0.07768499       -37.11428        0.6720251        49.95142
4.7932                 0.6700866         49.4002       0.07610355       -37.27491       0.07610398       -37.27494        0.6700862        49.40015
4.7946                 0.6681701        48.85184       0.07456177       -37.50863        0.0745622       -37.50869        0.6681697        48.85178
4.796                  0.6662802        48.30546       0.07304157        -37.8213       0.07304198       -37.82139        0.6662797         48.3054
4.7974                 0.6644193        47.76007       0.07152569       -38.21691       0.07152608       -38.21703        0.6644188        47.76001
4.7988                 0.6625881        47.21461       0.06999783       -38.69759       0.06999822       -38.69773        0.6625875        47.21456
4.8002                  0.660785        46.66799       0.06844298       -39.26368       0.06844335       -39.26385        0.6607843        46.66795
4.8016                 0.6590065        46.11915       0.06684785       -39.91387        0.0668482       -39.91406        0.6590058        46.11911
4.803                  0.6572475          45.567       0.06520114        -40.6453       0.06520146       -40.64551        0.6572468        45.56697
4.8044                 0.6555006        45.01055        0.0634937       -41.45377         0.063494       -41.45401        0.6554998        45.01052
4.8058                 0.6537565        44.44888       0.06171876       -42.33396       0.06171905       -42.33421        0.6537556        44.44886
4.8072                 0.6520046        43.88119       0.05987196       -43.27948       0.05987221       -43.27976        0.6520038        43.88118
4.8086                 0.6502327         43.3068       0.05795134        -44.2832       0.05795158       -44.28349         0.650232        43.30678
4.81                   0.6484279        42.72517       0.05595741       -45.33724       0.05595763       -45.33754        0.6484271        42.72516
4.8114                 0.6465758        42.13598       0.05389296       -46.43325       0.05389314       -46.43358         0.646575        42.13598
4.8128                 0.6446621        41.53902       0.05176298       -47.56251       0.05176315       -47.56285        0.6446613        41.53904
4.8142                 0.6426719        40.93436       0.04957459       -48.71608       0.04957473       -48.71644        0.6426712        40.93437
4.8156                 0.6405909        40.32218       0.04733673       -49.88504       0.04733686       -49.88541        0.6405902        40.32219
4.817                   0.638405        39.70289       0.04506006       -51.06069       0.04506016       -51.06107        0.6384042        39.70291
4.8184                  0.636101         39.0771       0.04275662       -52.23485       0.04275671       -52.23524        0.6361004        39.07711
4.8198                 0.6336672        38.44555       0.04043964       -53.40035       0.04043972       -53.40075        0.6336666        38.44558
4.8212                 0.6310931        37.80918       0.03812318       -54.55153       0.03812324       -54.55195        0.6310925        37.80921
4.8226                 0.6283698        37.16907       0.03582183       -55.68504       0.03582187       -55.68549        0.6283693         37.1691
4.824                  0.6254906        36.52641       0.03355028       -56.80093       0.03355032       -56.80139        0.6254901        36.52644
4.8254                 0.6224508        35.88249       0.03132302       -57.90398       0.03132305       -57.90446        0.6224503        35.88252
4.8268                 0.6192479        35.23868       0.02915385        -59.0056       0.02915386        -59.0061        0.6192474        35.23871
4.8282                 0.6158817        34.59639       0.02705545       -60.12615       0.02705545       -60.12666        0.6158813        34.59642
4.8296                 0.6123541        33.95704       0.02503907       -61.29792       0.02503906       -61.29847        0.6123537        33.95708
4.831                  0.6086696        33.32206       0.02311418       -62.56887       0.02311417       -62.56942        0.6086694        33.32208
4.8324                 0.6048347        32.69278        0.0212884       -64.00697       0.02128839       -64.00755        0.6048344        32.69281
4.8338                 0.6008574        32.07052       0.01956772       -65.70547        0.0195677       -65.70609        0.6008571        32.07055
4.8352                 0.5967483        31.45643       0.01795725       -67.78882       0.01795723       -67.78945         0.596748        31.45646
4.8366                 0.5925186        30.85159       0.01646274       -70.41866       0.01646272       -70.41933        0.5925184        30.85161
4.838                  0.5881814        30.25686       0.01509321       -73.79895       0.01509319       -73.79965        0.5881812        30.25687
4.8394                 0.5837503        29.67293        0.0138649       -78.17542       0.01386489       -78.17616        0.5837501        29.67295
4.8408                 0.5792393        29.10032       0.01280664       -83.81968       0.01280664       -83.82046        0.5792391        29.10034
4.8422                 0.5746626         28.5393       0.01196571       -90.97792       0.01196573       -90.97873        0.5746623        28.53931
4.8436                 0.5700338        27.98992       0.01141119       -99.75989       0.01141122       -99.76071        0.5700336        27.98993
4.845                  0.5653662        27.45201       0.01122871       -109.9767       0.01122876       -109.9775         0.565366        27.45202
4.8464                 0.5606714        26.92516       0.01150153       -121.0384        0.0115016       -121.0391        0.5606711        26.92516
4.8478                 0.5559597        26.40875       0.01228393       -132.0887       0.01228402       -132.0893        0.5559594        26.40876
4.8492                 0.5512394        25.90197       0.01358612        -142.356       0.01358622       -142.3565        0.5512391        25.90198
4.8506                 0.5465164        25.40385        0.0153822       -151.4241        0.0153823       -151.4244        0.5465162        25.40385
4.852                  0.5417945        24.91325       0.01763017       -159.2338       0.01763028        -159.234        0.5417942        24.91325
4.8534                 0.5370743        24.42895       0.02028775        -165.933       0.02028786       -165.9331         0.537074        24.42895
4.8548                 0.5323538         23.9497       0.02331903       -171.7365       0.02331915       -171.7366        0.5323535         23.9497
4.8562                 0.5276282        23.47423        0.0266952       -176.8514       0.02669531       -176.8515        0.5276278        23.47424
4.8576                 0.5228896        23.00134       0.03039278        178.5502       0.03039289        178.5502        0.5228892        23.00135
4.859                  0.5181274        22.52995       0.03439167        174.3345       0.03439178        174.3345         0.518127        22.52995
4.8604                 0.5133288        22.05913       0.03867351        170.4005       0.03867362        170.4004        0.5133284        22.05913
4.8618                 0.5084783        21.58823       0.04322044        166.6732       0.04322055        166.6731        0.5084779        21.58824
4.8632                 0.5035587        21.11688       0.04801435         163.097       0.04801445         163.097        0.5035584        21.11688
4.8646                 0.4985517        20.64505       0.05303636        159.6313       0.05303646        159.6313        0.4985514        20.64506
4.866                  0.4934376        20.17314       0.05826655        156.2456       0.05826664        156.2456        0.4934371        20.17314
4.8674                 0.4881964        19.70197       0.06368381        152.9179        0.0636839        152.9179         0.488196        19.70198
4.8688                 0.4828086         19.2329       0.06926577        149.6315       0.06926587        149.6315        0.4828082        19.23291
4.8702                 0.4772552        18.76779       0.07498889        146.3744       0.07498896        146.3744        0.4772548         18.7678
4.8716                 0.4715191        18.30907       0.08082841        143.1377       0.08082848        143.1377        0.4715187        18.30908