! TOUCHSTONE file generated by CST MICROWAVE STUDIO
! Date and time: Sat Nov 30 13:10:56 2024
! Project name: test_tuning.cst
! Parameters = {airCoaxOuterDiameter=3; chamferAngle=45; chamferWidth=24; connectorLength=10; drillingHoleDiameter=4.1; feedLength=60; flareDiameter=130; flareLength=70; gratingDistance=0; gratingGap=1.90274; outletLength=30; polarizerLength=134; probe1Diameter=1.3; probe1Distance=9.5; probe1Length=12; probe2Diameter=1.3; probe2Distance=0; probe2Length=12; probeLength=12; smaInnerDiameter=1.3; smaOuterDiameter=4.1; transitionCoefficient=1.33; waveguideFeedLength=30; waveguideSide=50; waveguideThickness=3; wireCount=25; wireDiameter=1.17699}
! Header version: 2024
! Port assignment regex: !\s*Touchstone port\s*([0-9]+)\s*=\s*(CST MWS port|CST DES external port|CST DES block port)\s*(.+)\s* \(\"(.*)\"\)(\s*mode\s*([0-9]+))?.*
! Touchstone port assignment:
! Touchstone port 1 = CST MWS port 1 ("Input1")
! Touchstone port 2 = CST MWS port 2 ("Input2")
# GHz S MA R 50
4.6                    0.1984359        11.25632         0.602046        94.75919        0.6020445        94.75907        0.1984324        11.25578
4.6014                 0.1902376        9.351814        0.6079873        93.82617        0.6079858        93.82609         0.190234        9.351274
4.6028                 0.1818247         7.25692         0.614115        92.86706        0.6141133        92.86697         0.181821        7.256375
4.6042                 0.1731868        4.941307        0.6204162        91.87886        0.6204145        91.87879        0.1731831        4.940756
4.6056                  0.164321        2.367779        0.6268729        90.85886        0.6268713        90.85881        0.1643172        2.367218
4.607                  0.1552348      -0.5101788        0.6334622        89.80459        0.6334605        89.80452         0.155231      -0.5107548
4.6084                 0.1459503        -3.75175        0.6401561        88.71387        0.6401545        88.71383        0.1459465       -3.752351
4.6098                 0.1365086       -7.433319        0.6469225        87.58495        0.6469207         87.5849        0.1365048       -7.433957
4.6112                 0.1269777       -11.65441        0.6537252         86.4164        0.6537235        86.41637         0.126974       -11.65511
4.6126                 0.1174627       -16.54499        0.6605251        85.20726        0.6605234        85.20724         0.117459       -16.54577
4.614                  0.1081209       -22.27304        0.6672803        83.95696        0.6672786        83.95693        0.1081173       -22.27394
4.6154                0.09918285       -29.04842        0.6739471        82.66528        0.6739454        82.66528       0.09917947       -29.04948
4.6168                0.09097902       -37.11275        0.6804801        81.33249        0.6804785        81.33251       0.09097587       -37.11402
4.6182                0.08396455       -46.69322        0.6868339        79.95918        0.6868323        79.95918       0.08396169       -46.69478
4.6196                0.07872102       -57.89033        0.6929627        78.54625        0.6929612        78.54628       0.07871854       -57.89218
4.621                  0.0758917       -70.49938        0.6988215        77.09502        0.6988201        77.09504       0.07588973       -70.50149
4.6224                0.07601832       -83.88181        0.7043668        75.60698        0.7043655        75.60699       0.07601689       -83.88404
4.6238                 0.0793383       -97.09656        0.7095568        74.08391        0.7095555        74.08394        0.0793374       -97.09874
4.6252                0.08570155       -109.2925        0.7143519        72.52783        0.7143507        72.52786       0.08570111       -109.2944
4.6266                 0.0946808       -120.0174        0.7187154        70.94091        0.7187142        70.94095       0.09468077       -120.0192
4.628                  0.1057606       -129.2186        0.7226137        69.32548        0.7226125        69.32552        0.1057608       -129.2201
4.6294                 0.1184684       -137.0683        0.7260167        67.68395        0.7260155        67.68399        0.1184688       -137.0695
4.6308                  0.132422       -143.8084        0.7288976        66.01888        0.7288965         66.0189        0.1324225       -143.8094
4.6322                  0.147327        -149.669         0.731234        64.33281         0.731233        64.33284        0.1473276       -149.6699
4.6336                 0.1629589       -154.8413        0.7330073        62.62838        0.7330062         62.6284        0.1629595        -154.842
4.635                  0.1791438       -159.4748        0.7342025        60.90821        0.7342015        60.90825        0.1791444       -159.4754
4.6364                 0.1957438       -163.6839        0.7348092        59.17495        0.7348081        59.17499        0.1957443       -163.6843
4.6378                  0.212646       -167.5552        0.7348206        57.43118        0.7348198        57.43121        0.2126465       -167.5556
4.6392                 0.2297557       -171.1546        0.7342343        55.67947        0.7342335         55.6795        0.2297562       -171.1549
4.6406                 0.2469913       -174.5323        0.7330513        53.92235        0.7330505        53.92238        0.2469918       -174.5325
4.642                  0.2642806       -177.7269        0.7312764        52.16226        0.7312756        52.16229         0.264281        -177.727
4.6434                 0.2815593        179.2318        0.7289179        50.40162        0.7289171        50.40165        0.2815597        179.2317
4.6448                 0.2987689        176.3204        0.7259873        48.64272        0.7259864        48.64274        0.2987694        176.3203
4.6462                 0.3158562        173.5205        0.7224992        46.88778        0.7224984        46.88781        0.3158567        173.5205
4.6476                 0.3327722        170.8177        0.7184709        45.13897        0.7184701        45.13901        0.3327726        170.8177
4.649                  0.3494718        168.2003        0.7139224        43.39831        0.7139216        43.39834        0.3494723        168.2003
4.6504                 0.3659137        165.6591        0.7088759        41.66774        0.7088751        41.66777        0.3659142        165.6591
4.6518                   0.38206        163.1865        0.7033556         39.9491        0.7033548        39.94913        0.3820606        163.1866
4.6532                  0.397876        160.7766        0.6973874         38.2441        0.6973866        38.24413        0.3978767        160.7767
4.6546                 0.4133304        158.4244        0.6909986        36.55434        0.6909978        36.55437        0.4133311        158.4245
4.656                   0.428395         156.126        0.6842176         34.8813         0.684217        34.88134        0.4283957        156.1261
4.6574                 0.4430446         153.878         0.677074        33.22637        0.6770731        33.22641        0.4430454        153.8781
4.6588                 0.4572573        151.6779        0.6695972        31.59074        0.6695964        31.59079        0.4572582         151.678
4.6602                 0.4710141        149.5235        0.6618178        29.97554        0.6618171        29.97558        0.4710151        149.5236
4.6616                  0.484299        147.4129        0.6537657        28.38171         0.653765        28.38175        0.4843001         147.413
4.663                  0.4970992        145.3447        0.6454711        26.81008        0.6454704        26.81013        0.4971004        145.3448
4.6644                 0.5094045        143.3176        0.6369632        25.26133        0.6369625        25.26139        0.5094057        143.3178
4.6658                 0.5212076        141.3307        0.6282708        23.73602        0.6282701        23.73607         0.521209        141.3308
4.6672                 0.5325041        139.3831        0.6194216        22.23453         0.619421        22.23459        0.5325056        139.3832
4.6686                  0.543292         137.474        0.6104421        20.75715        0.6104415        20.75721        0.5432936        137.4741
4.67                   0.5535719        135.6028        0.6013574        19.30399        0.6013569        19.30406        0.5535736        135.6029
4.6714                 0.5633469        133.7689        0.5921913        17.87507        0.5921909        17.87514        0.5633486         133.769
4.6728                 0.5726218        131.9717        0.5829656        16.47027        0.5829653        16.47034        0.5726236        131.9718
4.6742                 0.5814041        130.2108        0.5737006        15.08935        0.5737002        15.08943         0.581406        130.2109
4.6756                 0.5897026        128.4856        0.5644146        13.73199        0.5644143        13.73207        0.5897045        128.4857
4.677                   0.597528        126.7956        0.5551239        12.39779        0.5551237        12.39787        0.5975298        126.7957
4.6784                 0.6048922        125.1404        0.5458431        11.08624        0.5458429        11.08633        0.6048941        125.1404
4.6798                 0.6118087        123.5192        0.5365847        9.796839        0.5365846        9.796921        0.6118107        123.5193
4.6812                 0.6182918        121.9317        0.5273598        8.529006        0.5273597        8.529088        0.6182937        121.9317
4.6826                 0.6243563        120.3771         0.518177        7.282173        0.5181769        7.282254        0.6243582        120.3772
4.684                   0.630018        118.8549        0.5090439        6.055776         0.509044        6.055855        0.6300199        118.8549
4.6854                 0.6352928        117.3643        0.4999665        4.849286        0.4999666        4.849363        0.6352946        117.3643
4.6868                 0.6401969        115.9046        0.4909492        3.662222        0.4909494        3.662297        0.6401986        115.9046
4.6882                 0.6447463        114.4751        0.4819957        2.494181        0.4819959        2.494251        0.6447479        114.4751
4.6896                 0.6489569        113.0751        0.4731086        1.344844        0.4731088         1.34491        0.6489586         113.075
4.691                  0.6528444        111.7037        0.4642896       0.2140001        0.4642899       0.2140609         0.652846        111.7036
4.6924                 0.6564238        110.3601        0.4555405      -0.8984449        0.4555408      -0.8983903        0.6564253          110.36
4.6938                 0.6597099        109.0435        0.4468623       -1.992458        0.4468627        -1.99241        0.6597111        109.0435
4.6952                 0.6627163        107.7532        0.4382563       -3.067874        0.4382567       -3.067833        0.6627174        107.7532
4.6966                 0.6654565        106.4883        0.4297239       -4.124394        0.4297243        -4.12436        0.6654574        106.4883
4.698                   0.667943        105.2481        0.4212668       -5.161592        0.4212672       -5.161566        0.6679438        105.2481
4.6994                 0.6701877        104.0318        0.4128872       -6.178918        0.4128876       -6.178901        0.6701884        104.0317
4.7008                 0.6722018        102.8386        0.4045882       -7.175718        0.4045886       -7.175718        0.6722024        102.8386
4.7022                  0.673996         101.668        0.3963732       -8.151233        0.3963736       -8.151233        0.6739964        101.6679
4.7036                 0.6755803        100.5191        0.3882468       -9.104655        0.3882471       -9.104656        0.6755805        100.5191
4.705                  0.6769642        99.39155        0.3802142       -10.03514        0.3802145       -10.03514        0.6769643        99.39148
4.7064                 0.6781571        98.28462        0.3722815       -10.94179        0.3722818       -10.94179        0.6781571        98.28455
4.7078                 0.6791677        97.19785        0.3644555       -11.82375        0.3644558       -11.82377        0.6791676        97.19779
4.7092                 0.6800049        96.13076        0.3567438       -12.68028        0.3567439       -12.68031        0.6800046        96.13071
4.7106                 0.6806772        95.08292        0.3491544        -13.5107        0.3491545       -13.51074        0.6806768        95.08287
4.712                  0.6811932        94.05391        0.3416957       -14.31445        0.3416958       -14.31449        0.6811927        94.05386
4.7134                 0.6815616        93.04337        0.3343764        -15.0912        0.3343764       -15.09124        0.6815611        93.04334
4.7148                 0.6817913        92.05099        0.3272051       -15.84081        0.3272051       -15.84086        0.6817907        92.05094
4.7162                 0.6818912        91.07637        0.3201902       -16.56344        0.3201901       -16.56349        0.6818905        91.07634
4.7176                 0.6818704         90.1192        0.3133396       -17.25951        0.3133395       -17.25956        0.6818698        90.11918
4.719                  0.6817385        89.17913        0.3066604       -17.92978        0.3066602       -17.92983        0.6817377        89.17913
4.7204                 0.6815048        88.25582        0.3001587       -18.57535        0.3001584        -18.5754         0.681504        88.25582
4.7218                 0.6811792        87.34883        0.2938394       -19.19767        0.2938392        -19.1977        0.6811785        87.34886
4.7232                 0.6807714         86.4578        0.2877059       -19.79851        0.2877057       -19.79854        0.6807706        86.45783
4.7246                 0.6802914        85.58223        0.2817601       -20.37999        0.2817598       -20.38001        0.6802906        85.58226
4.726                  0.6797486        84.72166        0.2760019       -20.94453        0.2760016       -20.94454        0.6797479        84.72168
4.7274                 0.6791527         83.8754        0.2704294       -21.49478        0.2704291       -21.49478         0.679152        83.87548
4.7288                 0.6785126        83.04298        0.2650387       -22.03362        0.2650384       -22.03361         0.678512        83.04301
4.7302                 0.6778372        82.22356        0.2598241       -22.56404        0.2598237       -22.56403        0.6778366        82.22362
4.7316                 0.6771344        81.41648        0.2547778        -23.0891        0.2547774       -23.08908        0.6771338        81.41657
4.733                  0.6764115        80.62094        0.2498904       -23.61184          0.24989       -23.61181        0.6764109          80.621
4.7344                 0.6756748        79.83605        0.2451508       -24.13519        0.2451505       -24.13514        0.6756742         79.8361
4.7358                 0.6749297        79.06095        0.2405467       -24.66186        0.2405465       -24.66181        0.6749291        79.06098
4.7372                 0.6741803        78.29466        0.2360647       -25.19434        0.2360645       -25.19427        0.6741799        78.29472
4.7386                 0.6734299        77.53624        0.2316905       -25.73471        0.2316903       -25.73464        0.6734295         77.5363
4.74                   0.6726801        76.78478        0.2274094       -26.28469        0.2274092       -26.28461        0.6726797        76.78484
4.7414                 0.6719314        76.03929        0.2232067       -26.84549        0.2232066        -26.8454        0.6719309        76.03937
4.7428                 0.6711831        75.29884        0.2190679       -27.41782        0.2190678       -27.41773        0.6711827         75.2989
4.7442                 0.6704331        74.56256        0.2149789       -28.00185        0.2149789       -28.00175        0.6704327        74.56258
4.7456                 0.6696781        73.82959        0.2109269       -28.59719        0.2109269       -28.59709        0.6696777        73.82961
4.747                  0.6689138        73.09915           0.2069       -29.20288        0.2069001       -29.20279        0.6689134        73.09917
4.7484                 0.6681348        72.37056        0.2028878       -29.81742         0.202888       -29.81733        0.6681343        72.37061
4.7498                  0.667335        71.64323        0.1988818       -30.43877        0.1988819       -30.43868        0.6673345        71.64331
4.7512                 0.6665075        70.91669        0.1948751        -31.0644        0.1948752       -31.06432         0.666507        70.91675
4.7526                  0.665645        70.19054        0.1908629       -31.69132        0.1908631       -31.69124        0.6656444        70.19057
4.754                  0.6647398        69.46449        0.1868427       -32.31614        0.1868429       -32.31607        0.6647393        69.46455
4.7554                 0.6637842        68.73845        0.1828139       -32.93513        0.1828142       -32.93507        0.6637836        68.73848
4.7568                 0.6627707        68.01235        0.1787783       -33.54429        0.1787785       -33.54424          0.66277        68.01238
4.7582                  0.661692        67.28631        0.1747396       -34.13943        0.1747399        -34.1394        0.6616914         67.2864
4.7596                 0.6605416        66.56056        0.1707036       -34.71628        0.1707039       -34.71625        0.6605409        66.56062
4.761                  0.6593136        65.83538        0.1666781       -35.27053        0.1666783       -35.27053        0.6593129        65.83547
4.7624                 0.6580031         65.1112        0.1626723       -35.79807        0.1626726       -35.79807        0.6580022        65.11126
4.7638                 0.6566063         64.3885        0.1586973       -36.29495        0.1586975       -36.29497        0.6566053        64.38856
4.7652                 0.6551204        63.66781        0.1547648       -36.75765        0.1547651       -36.75769        0.6551195         63.6679
4.7666                 0.6535443        62.94976         0.150888       -37.18316        0.1508883       -37.18322        0.6535434        62.94982
4.768                  0.6518783          62.235        0.1470802       -37.56915        0.1470804       -37.56921        0.6518774        62.23506
4.7694                 0.6501237        61.52409        0.1433549       -37.91409        0.1433551       -37.91416        0.6501228        61.52421
4.7708                 0.6482838        60.81778        0.1397255       -38.21743        0.1397257       -38.21752        0.6482829         60.8179
4.7722                 0.6463628        60.11663        0.1362045       -38.47975        0.1362047       -38.47985        0.6463619        60.11671
4.7736                 0.6443665        59.42116        0.1328034       -38.70279        0.1328035       -38.70291        0.6443656        59.42128
4.775                  0.6423019        58.73189         0.129532       -38.88966        0.1295321       -38.88977        0.6423011        58.73201
4.7764                 0.6401769        58.04921        0.1263983       -39.04471        0.1263983       -39.04483         0.640176        58.04934
4.7778                 0.6380003        57.37341        0.1234077       -39.17363        0.1234077       -39.17375        0.6379996        57.37354
4.7792                 0.6357817        56.70467        0.1205633        -39.2833        0.1205633       -39.28342         0.635781         56.7048
4.7806                 0.6335309        56.04301        0.1178651       -39.38169         0.117865       -39.38181        0.6335302        56.04315
4.782                  0.6312579        55.38834        0.1153102       -39.47759        0.1153101       -39.47771        0.6312575        55.38848
4.7834                 0.6289729         54.7404        0.1128929       -39.58036        0.1128927       -39.58048        0.6289725        54.74055
4.7848                 0.6266853        54.09881        0.1106044       -39.69968        0.1106042       -39.69978        0.6266851        54.09895
4.7862                 0.6244042        53.46298        0.1084333       -39.84512        0.1084332       -39.84522        0.6244041        53.46313
4.7876                 0.6221377        52.83224        0.1063662       -40.02591         0.106366       -40.02599        0.6221376         52.8324
4.789                  0.6198926        52.20576        0.1043875       -40.25056        0.1043872       -40.25064        0.6198925        52.20591
4.7904                 0.6176743         51.5826        0.1024801       -40.52668        0.1024799       -40.52673        0.6176744        51.58275
4.7918                 0.6154872         50.9617        0.1006264       -40.86065        0.1006262        -40.8607        0.6154873        50.96186
4.7932                 0.6133331        50.34194       0.09880806       -41.25759       0.09880783       -41.25763        0.6133335        50.34208
4.7946                 0.6112128        49.72215        0.0970071       -41.72119       0.09700687       -41.72121        0.6112132        49.72229
4.796                  0.6091247        49.10109       0.09520609       -42.25373       0.09520585       -42.25373        0.6091252        49.10124
4.7974                 0.6070653        48.47758       0.09338873       -42.85604       0.09338849       -42.85602        0.6070659        48.47771
4.7988                 0.6050294         47.8504       0.09154016       -43.52763       0.09153993       -43.52761        0.6050301        47.85053
4.8002                 0.6030099        47.21846       0.08964735       -44.26676       0.08964713       -44.26673        0.6030106        47.21858
4.8016                 0.6009978        46.58069       0.08769935       -45.07053       0.08769914        -45.0705        0.6009987        46.58079
4.803                   0.598983        45.93615       0.08568739       -45.93508        0.0856872       -45.93502        0.5989838        45.93625
4.8044                 0.5969534        45.28405       0.08360514        -46.8556       0.08360496       -46.85554        0.5969543        45.28414
4.8058                 0.5948965        44.62374       0.08144869        -47.8266       0.08144851       -47.82653        0.5948973        44.62382
4.8072                 0.5927984        43.95473       0.07921658       -48.84194       0.07921641       -48.84186        0.5927992        43.95479
4.8086                  0.590645        43.27672        0.0769098       -49.89502       0.07690964       -49.89494        0.5906458        43.27678
4.81                   0.5884218        42.58962       0.07453165       -50.97891       0.07453152       -50.97882        0.5884226        42.58966
4.8114                 0.5861144        41.89351       0.07208774       -52.08642        0.0720876       -52.08634        0.5861153        41.89354
4.8128                 0.5837089        41.18868        0.0695857        -53.2104       0.06958557       -53.21031        0.5837097         41.1887
4.8142                  0.581192         40.4756       0.06703506       -54.34376       0.06703493       -54.34367        0.5811927        40.47562
4.8156                 0.5785512        39.75496       0.06444705        -55.4798       0.06444695        -55.4797        0.5785519        39.75497
4.817                  0.5757755        39.02758       0.06183433       -56.61241       0.06183423       -56.61231        0.5757762        39.02759
4.8184                 0.5728552        38.29448       0.05921066       -57.73646       0.05921056       -57.73637        0.5728558        38.29447
4.8198                 0.5697826        37.55679       0.05659066       -58.84817       0.05659057       -58.84806         0.569783        37.55677
4.8212                 0.5665513        36.81575        0.0539894       -59.94562       0.05398931       -59.94551        0.5665516        36.81574
4.8226                 0.5631573        36.07276       0.05142207       -61.02939       0.05142198       -61.02928        0.5631576        36.07273
4.824                  0.5595986        35.32921        0.0489035       -62.10331       0.04890342        -62.1032        0.5595989        35.32919
4.8254                 0.5558753        34.58661       0.04644785       -63.17529       0.04644777       -63.17518        0.5558755        34.58658
4.8268                 0.5519897        33.84643        0.0440681       -64.25836       0.04406801       -64.25823        0.5519898        33.84639
4.8282                 0.5479458        33.11015       0.04177567       -65.37161       0.04177558       -65.37149        0.5479457        33.11012
4.8296                 0.5437499        32.37922       0.03958015       -66.54143       0.03958006       -66.54129        0.5437498        32.37918
4.831                    0.53941        31.65499       0.03748903       -67.80243       0.03748894       -67.80228        0.5394098        31.65496
4.8324                 0.5349357        30.93873       0.03550767       -69.19845       0.03550757       -69.19829        0.5349354         30.9387
4.8338                 0.5303379        30.23158       0.03363955       -70.78325       0.03363945       -70.78306        0.5303376        30.23156
4.8352                 0.5256286        29.53454       0.03188676       -72.62099       0.03188667       -72.62082        0.5256282        29.53452
4.8366                 0.5208209        28.84839         0.030251        -74.7863        0.0302509       -74.78611        0.5208203        28.84838
4.838                  0.5159278        28.17376       0.02873489        -77.3636       0.02873479       -77.36338        0.5159273        28.17375
4.8394                 0.5109629        27.51103       0.02734391       -80.44557       0.02734381       -80.44534        0.5109624        27.51102
4.8408                 0.5059395        26.86036       0.02608867       -84.12972       0.02608856       -84.12946        0.5059389        26.86036
4.8422                 0.5008699         26.2217       0.02498746       -88.51193       0.02498735       -88.51166        0.5008693        26.22171
4.8436                 0.4957659        25.59474        0.0240688       -93.67506       0.02406868       -93.67478        0.4957653        25.59475
4.845                  0.4906376        24.97895       0.02337307       -99.67091       0.02337295       -99.67064         0.490637        24.97897
4.8464                 0.4854937        24.37359       0.02295242        -106.496        0.0229523       -106.4957         0.485493        24.37362
4.8478                 0.4803407        23.77771       0.02286751       -114.0668       0.02286738       -114.0666        0.4803402        23.77774
4.8492                 0.4751832        23.19022       0.02318058       -122.2068       0.02318043       -122.2066        0.4751826        23.19025
4.8506                 0.4700229        22.60987       0.02394586       -130.6608       0.02394571       -130.6606        0.4700223        22.60992
4.852                  0.4648595        22.03535       0.02520064       -139.1402       0.02520048       -139.1401        0.4648589         22.0354
4.8534                 0.4596896        21.46529       0.02696039       -147.3831       0.02696024       -147.3829        0.4596891        21.46535
4.8548                 0.4545074        20.89835       0.02921984          -155.2       0.02921968       -155.1999         0.454507        20.89841
4.8562                 0.4493045        20.33325       0.03195812       -162.4897       0.03195796       -162.4896        0.4493041        20.33331
4.8576                   0.44407        19.76885        0.0351452       -169.2267       0.03514503       -169.2266        0.4440696        19.76892
4.859                  0.4387905        19.20424       0.03874706       -175.4369       0.03874691       -175.4368        0.4387902        19.20431
4.8604                 0.4334511        18.63873       0.04272909        178.8262       0.04272893        178.8263        0.4334508        18.63879
4.8618                 0.4280348        18.07196       0.04705757        173.4989       0.04705743         173.499        0.4280346        18.07203
4.8632                 0.4225239          17.504       0.05170025         168.518       0.05170009        168.5181        0.4225237        17.50407
4.8646                 0.4168994        16.93534       0.05662612        163.8259       0.05662597        163.8259        0.4168992        16.93541
4.866                  0.4111424        16.36696       0.06180527        159.3725       0.06180513        159.3725        0.4111423        16.36703
4.8674                 0.4052339        15.80045       0.06720832        155.1159       0.06720818        155.1159        0.4052339        15.80052
4.8688                 0.3991562        15.23797       0.07280621        151.0213       0.07280608        151.0213        0.3991562        15.23804
4.8702                 0.3928926        14.68237       0.07856994        147.0601       0.07856982        147.0601        0.3928927        14.68242
4.8716                 0.3864286        14.13718       0.08447036        143.2093       0.08447023        143.2093        0.3864287        14.13723