! TOUCHSTONE file generated by CST MICROWAVE STUDIO
! Date and time: Sat Nov 30 13:10:58 2024
! Project name: test_tuning.cst
! Parameters = {airCoaxOuterDiameter=3; chamferAngle=45; chamferWidth=24; connectorLength=10; drillingHoleDiameter=4.1; feedLength=60; flareDiameter=130; flareLength=70; gratingDistance=0; gratingGap=1.90274; outletLength=30; polarizerLength=134; probe1Diameter=1.3; probe1Distance=12; probe1Length=12; probe2Diameter=1.3; probe2Distance=0; probe2Length=12; probeLength=12; smaInnerDiameter=1.3; smaOuterDiameter=4.1; transitionCoefficient=1.33; waveguideFeedLength=30; waveguideSide=50; waveguideThickness=3; wireCount=25; wireDiameter=1.17699}
! Header version: 2024
! Port assignment regex: !\s*Touchstone port\s*([0-9]+)\s*=\s*(CST MWS port|CST DES external port|CST DES block port)\s*(.+)\s* \(\"(.*)\"\)(\s*mode\s*([0-9]+))?.*
! Touchstone port assignment:
! Touchstone port 1 = CST MWS port 1 ("Input1")
! Touchstone port 2 = CST MWS port 2 ("Input2")
# GHz S MA R 50
4.6                   0.09338569       -135.8557        0.6207433        76.18468        0.6207448        76.18479       0.09338104       -135.8557
4.6014                 0.1006224       -138.2363        0.6240819        75.28199        0.6240836        75.28208         0.100618       -138.2361
4.6028                  0.108112       -140.4121        0.6274441        74.35966        0.6274457        74.35971        0.1081077       -140.4119
4.6042                 0.1158497       -142.4238         0.630812        73.41638        0.6308137        73.41642        0.1158457       -142.4235
4.6056                 0.1238326       -144.3044        0.6341658         72.4511        0.6341675        72.45112        0.1238288       -144.3039
4.607                  0.1320581       -146.0809        0.6374831        71.46297        0.6374848        71.46299        0.1320545       -146.0805
4.6084                 0.1405231       -147.7758        0.6407402        70.45142        0.6407418        70.45142        0.1405198       -147.7753
4.6098                 0.1492244       -149.4074        0.6439114        69.41613        0.6439131        69.41612        0.1492213       -149.4069
4.6112                  0.158157       -150.9907         0.646971        68.35704        0.6469726        68.35701        0.1581542       -150.9902
4.6126                 0.1673149       -152.5383        0.6498921        67.27436        0.6498935        67.27433        0.1673123       -152.5377
4.614                  0.1766903       -154.0602        0.6526479        66.16859        0.6526494        66.16854         0.176688       -154.0596
4.6154                  0.186274       -155.5646        0.6552124        65.04043        0.6552139        65.04038         0.186272        -155.564
4.6168                 0.1960548       -157.0582        0.6575603        63.89085        0.6575616         63.8908        0.1960531       -157.0577
4.6182                 0.2060203       -158.5464        0.6596674        62.72102        0.6596686        62.72096        0.2060188       -158.5459
4.6196                 0.2161562       -160.0331        0.6615113        61.53232        0.6615124        61.53226         0.216155       -160.0326
4.621                  0.2264472       -161.5217        0.6630715         60.3263        0.6630726        60.32623        0.2264463       -161.5212
4.6224                 0.2368765       -163.0144        0.6643299        59.10466        0.6643308        59.10458        0.2368758        -163.014
4.6238                 0.2474263       -164.5129        0.6652707         57.8692        0.6652714        57.86911        0.2474257       -164.5125
4.6252                 0.2580778       -166.0183        0.6658809        56.62187        0.6658816        56.62179        0.2580775       -166.0179
4.6266                 0.2688118       -167.5311        0.6661505        55.36465        0.6661511        55.36458        0.2688116       -167.5308
4.628                  0.2796082       -169.0517        0.6660722        54.09965        0.6660727        54.09957        0.2796082       -169.0514
4.6294                 0.2904469       -170.5798         0.665642        52.82891        0.6656423        52.82883        0.2904472       -170.5795
4.6308                 0.3013076       -172.1151        0.6648586        51.55455        0.6648589        51.55447        0.3013079       -172.1149
4.6322                 0.3121698       -173.6571         0.663724        50.27865        0.6637243        50.27856        0.3121702       -173.6569
4.6336                 0.3230134       -175.2049        0.6622433        49.00326        0.6622434        49.00317        0.3230139       -175.2048
4.635                  0.3338185       -176.7578        0.6604241        47.73035        0.6604241        47.73027        0.3338191       -176.7577
4.6364                 0.3445659       -178.3148        0.6582765        46.46186        0.6582765        46.46179        0.3445666       -178.3147
4.6378                 0.3552368       -179.8749        0.6558136        45.19959        0.6558135        45.19951        0.3552376       -179.8748
4.6392                 0.3658133         178.563        0.6530505        43.94523        0.6530503        43.94516        0.3658141        178.5631
4.6406                 0.3762781        176.9999        0.6500043        42.70036         0.650004        42.70029         0.376279             177
4.642                  0.3866152        175.4369        0.6466938        41.46639        0.6466934        41.46632         0.386616         175.437
4.6434                  0.396809         173.875        0.6431393        40.24457         0.643139         40.2445        0.3968099        173.8751
4.6448                 0.4068455        172.3153        0.6393622        39.03596        0.6393618        39.03591        0.4068464        172.3153
4.6462                 0.4167114        170.7586        0.6353848        37.84146        0.6353843        37.84141        0.4167124        170.7587
4.6476                 0.4263949        169.2061        0.6312296        36.66173        0.6312291        36.66169        0.4263958        169.2061
4.649                  0.4358847        167.6584        0.6269194        35.49726        0.6269189        35.49723        0.4358857        167.6584
4.6504                 0.4451713        166.1166        0.6224766         34.3483        0.6224762        34.34826        0.4451722        166.1166
4.6518                 0.4542458        164.5813        0.6179232        33.21489        0.6179227        33.21487        0.4542467        164.5813
4.6532                 0.4631007        163.0532        0.6132802        32.09687        0.6132795        32.09686        0.4631016        163.0532
4.6546                 0.4717293         161.533         0.608567        30.99387        0.6085666        30.99385        0.4717302         161.533
4.656                   0.480126        160.0214        0.6038024         29.9053        0.6038018        29.90529        0.4801268        160.0213
4.6574                  0.488286        158.5186        0.5990023        28.83044        0.5990018        28.83043        0.4882869        158.5186
4.6588                 0.4962056        157.0254        0.5941816        27.76833         0.594181        27.76833        0.4962064        157.0253
4.6602                 0.5038817        155.5419        0.5893523        26.71792        0.5893518        26.71793        0.5038825        155.5419
4.6616                 0.5113118        154.0686        0.5845247        25.67803        0.5845242        25.67804        0.5113126        154.0686
4.663                  0.5184943        152.6057        0.5797066        24.64738         0.579706        24.64739        0.5184952        152.6057
4.6644                 0.5254279        151.1534        0.5749029        23.62462        0.5749024        23.62464        0.5254288        151.1534
4.6658                  0.532112        149.7118        0.5701166        22.60838        0.5701162         22.6084        0.5321129        149.7118
4.6672                 0.5385462        148.2812        0.5653486        21.59728        0.5653482        21.59732        0.5385471        148.2813
4.6686                 0.5447302        146.8616        0.5605971        20.59001        0.5605968        20.59004        0.5447313        146.8616
4.67                   0.5506646        145.4531        0.5558587        19.58528        0.5558583        19.58531        0.5506655        145.4531
4.6714                 0.5563493        144.0556        0.5511278        18.58192        0.5511274        18.58196        0.5563505        144.0556
4.6728                 0.5617853        142.6692        0.5463976        17.57889        0.5463972        17.57894        0.5617863        142.6692
4.6742                 0.5669726        141.2938        0.5416598         16.5753        0.5416595        16.57535        0.5669737        141.2938
4.6756                 0.5719122        139.9295        0.5369054        15.57042        0.5369051        15.57048        0.5719133        139.9295
4.677                  0.5766047        138.5763        0.5321244        14.56374        0.5321243         14.5638        0.5766058        138.5763
4.6784                 0.5810507        137.2342        0.5273068        13.55493        0.5273066        13.55498        0.5810519        137.2342
4.6798                  0.585251         135.903        0.5224424        12.54387        0.5224422        12.54393        0.5852522         135.903
4.6812                 0.5892061         134.583        0.5175211        11.53068         0.517521        11.53074        0.5892075         134.583
4.6826                 0.5929172        133.2741        0.5125338        10.51568        0.5125337        10.51574        0.5929187        133.2742
4.684                  0.5963851        131.9765        0.5074721        9.499414        0.5074721        9.499478        0.5963867        131.9765
4.6854                 0.5996111        130.6901        0.5023288        8.482624        0.5023289        8.482689        0.5996125        130.6901
4.6868                 0.6025961        129.4152         0.497098        7.466249         0.497098        7.466315        0.6025977        129.4152
4.6882                 0.6053422        128.1519        0.4917754          6.4514        0.4917755        6.451465        0.6053437        128.1519
4.6896                 0.6078512        126.9005        0.4863584        5.439344        0.4863586         5.43941        0.6078527        126.9005
4.691                  0.6101253        125.6611        0.4808464        4.431487        0.4808466        4.431551        0.6101269        125.6611
4.6924                 0.6121675         124.434        0.4752405        3.429337        0.4752407        3.429401        0.6121691         124.434
4.6938                  0.613981        123.2195        0.4695439        2.434489        0.4695442        2.434552        0.6139827        123.2195
4.6952                 0.6155701         122.018        0.4637616        1.448586        0.4637619        1.448647        0.6155717         122.018
4.6966                 0.6169391        120.8297        0.4579008       0.4732932        0.4579011       0.4733526        0.6169408        120.8297
4.698                  0.6180935         119.655        0.4519701      -0.4897396        0.4519705      -0.4896823        0.6180953         119.655
4.6994                 0.6190395        118.4942        0.4459801       -1.438909        0.4459805       -1.438854        0.6190412        118.4942
4.7008                 0.6197837        117.3477        0.4399428       -2.372696        0.4399433       -2.372644        0.6197854        117.3477
4.7022                 0.6203339        116.2158        0.4338715       -3.289698         0.433872        -3.28965        0.6203355        116.2157
4.7036                 0.6206982        115.0988        0.4277807       -4.188678        0.4277812       -4.188623        0.6206998        115.0987
4.705                  0.6208859        113.9969        0.4216854        -5.06856        0.4216859       -5.068532        0.6208876        113.9969
4.7064                 0.6209069        112.9105        0.4156015       -5.928501        0.4156021       -5.928474        0.6209085        112.9104
4.7078                 0.6207714        111.8397        0.4095449       -6.767951        0.4095455       -6.767923         0.620773        111.8396
4.7092                 0.6204907        110.7845        0.4035315       -7.586596         0.403532       -7.586569        0.6204922        110.7844
4.7106                 0.6200761        109.7451        0.3975765       -8.384376         0.397577       -8.384351        0.6200775         109.745
4.712                  0.6195394        108.7214        0.3916947       -9.161642        0.3916953       -9.161624        0.6195409        108.7213
4.7134                 0.6188929        107.7132        0.3858996       -9.919007        0.3859002       -9.918993        0.6188942        107.7131
4.7148                 0.6181485        106.7205        0.3802035       -10.65742         0.380204       -10.65741        0.6181498        106.7204
4.7162                 0.6173184        105.7428        0.3746167       -11.37814        0.3746173       -11.37814        0.6173195        105.7427
4.7176                 0.6164143        104.7797        0.3691481       -12.08273        0.3691487       -12.08273        0.6164155        104.7796
4.719                  0.6154479        103.8308        0.3638041       -12.77302        0.3638046       -12.77302        0.6154489        103.8306
4.7204                 0.6144298        102.8953         0.358589       -13.45105        0.3585895       -13.45106        0.6144308        102.8952
4.7218                 0.6133704        101.9726        0.3535048       -14.11907        0.3535053       -14.11908        0.6133712        101.9725
4.7232                 0.6122787        101.0619        0.3485512       -14.77945        0.3485516       -14.77947        0.6122796        101.0618
4.7246                 0.6111631        100.1623        0.3437254       -15.43464        0.3437258       -15.43467        0.6111639        100.1621
4.726                  0.6100307        99.27274        0.3390224        -16.0871        0.3390229       -16.08713        0.6100314        99.27263
4.7274                 0.6088872        98.39231        0.3344354       -16.73921        0.3344358       -16.73925        0.6088878         98.3922
4.7288                 0.6077371        97.51993        0.3299553       -17.39327        0.3299557       -17.39331        0.6077377        97.51982
4.7302                 0.6065835        96.65449        0.3255717       -18.05137        0.3255721       -18.05141        0.6065839        96.65435
4.7316                  0.605428        95.79487        0.3212726       -18.71537         0.321273       -18.71542        0.6054284        95.79476
4.733                  0.6042706           94.94        0.3170453       -19.38684        0.3170457       -19.38689         0.604271        94.93989
4.7344                 0.6031103        94.08886        0.3128763       -20.06701        0.3128767       -20.06706        0.6031106        94.08876
4.7358                 0.6019444        93.24035        0.3087518       -20.75676        0.3087521       -20.75682        0.6019446        93.24024
4.7372                  0.600769        92.39358        0.3046582       -21.45657        0.3046584       -21.45663        0.6007692         92.3935
4.7386                 0.5995791        91.54768         0.300582       -22.16653        0.3005822       -22.16659        0.5995792        91.54754
4.74                   0.5983687        90.70182         0.296511        -22.8863        0.2965112       -22.88636        0.5983687        90.70168
4.7414                 0.5971308        89.85533        0.2924335       -23.61515        0.2924337       -23.61521         0.597131        89.85525
4.7428                 0.5958583        89.00772        0.2883397       -24.35196        0.2883399       -24.35203        0.5958582        89.00763
4.7442                 0.5945427        88.15854         0.284221       -25.09526        0.2842212       -25.09533        0.5945425         88.1584
4.7456                 0.5931759        87.30743        0.2800708       -25.84323        0.2800709        -25.8433        0.5931757        87.30735
4.747                  0.5917495        86.45429        0.2758842       -26.59374        0.2758843       -26.59381        0.5917493        86.45421
4.7484                 0.5902554         85.5991        0.2716586       -27.34444        0.2716587        -27.3445        0.5902552        85.59904
4.7498                 0.5886857        84.74196        0.2673936       -28.09271        0.2673937       -28.09277        0.5886855        84.74188
4.7512                 0.5870332         83.8831        0.2630907       -28.83583        0.2630908       -28.83589         0.587033        83.88299
4.7526                 0.5852914        83.02283        0.2587535       -29.57096        0.2587536       -29.57102        0.5852911        83.02278
4.754                  0.5834544        82.16165         0.254388       -30.29522         0.254388       -30.29528        0.5834541        82.16159
4.7554                 0.5815178        81.30012        0.2500017       -31.00577        0.2500017       -31.00584        0.5815175        81.30004
4.7568                 0.5794781        80.43884         0.245604       -31.69988         0.245604       -31.69994        0.5794778        80.43879
4.7582                 0.5773334        79.57856         0.241206       -32.37499         0.241206       -32.37504         0.577333         79.5785
4.7596                 0.5750826        78.71998        0.2368198       -33.02879        0.2368198       -33.02884        0.5750822        78.71993
4.761                  0.5727264         77.8639        0.2324588       -33.65932        0.2324588       -33.65938        0.5727261        77.86385
4.7624                 0.5702668        77.01109         0.228137       -34.26503        0.2281369       -34.26509        0.5702665        77.01103
4.7638                 0.5677074        76.16232        0.2238686       -34.84486        0.2238685       -34.84491         0.567707        76.16227
4.7652                 0.5650526        75.31834         0.219668       -35.39832         0.219668       -35.39836        0.5650522        75.31831
4.7666                 0.5623086        74.47977        0.2155492       -35.92553        0.2155491       -35.92558        0.5623083        74.47975
4.768                  0.5594824        73.64731        0.2115253       -36.42732        0.2115252       -36.42736        0.5594821        73.64728
4.7694                 0.5565821        72.82144        0.2076082       -36.90521        0.2076082       -36.90525        0.5565818        72.82138
4.7708                 0.5536166        72.00252        0.2038086       -37.36144        0.2038085       -37.36148        0.5536163        72.00252
4.7722                 0.5505955        71.19091        0.2001349       -37.79899        0.2001349       -37.79903        0.5505952        71.19088
4.7736                 0.5475288         70.3867        0.1965938        -38.2215        0.1965937       -38.22154        0.5475285        70.38667
4.775                  0.5444265        69.58984        0.1931891       -38.63327         0.193189        -38.6333        0.5444262        69.58984
4.7764                 0.5412988        68.80023        0.1899224       -39.03907        0.1899224       -39.03911        0.5412986        68.80023
4.7778                 0.5381555        68.01749        0.1867926       -39.44415        0.1867926       -39.44418        0.5381553        68.01749
4.7792                  0.535006        67.24116        0.1837958       -39.85401        0.1837957       -39.85403        0.5350058        67.24116
4.7806                 0.5318586        66.47051        0.1809255       -40.27427        0.1809254        -40.2743        0.5318585        66.47051
4.782                  0.5287212        65.70477        0.1781728       -40.71055        0.1781728       -40.71057        0.5287211        65.70477
4.7834                    0.5256        64.94296        0.1755268       -41.16826        0.1755267       -41.16829           0.5256        64.94296
4.7848                 0.5225001        64.18398        0.1729742       -41.65251        0.1729742       -41.65254           0.5225        64.18398
4.7862                 0.5194249        63.42666        0.1705006       -42.16792        0.1705005       -42.16794        0.5194249        63.42665
4.7876                 0.5163765        62.66968        0.1680902        -42.7185        0.1680902       -42.71852        0.5163764        62.66968
4.789                  0.5133548        61.91172        0.1657266       -43.30761        0.1657266       -43.30764        0.5133549         61.9117
4.7904                 0.5103586        61.15135        0.1633931       -43.93786        0.1633931       -43.93789        0.5103586        61.15134
4.7918                 0.5073843        60.38723        0.1610731       -44.61108        0.1610731       -44.61111        0.5073844         60.3872
4.7932                  0.504427        59.61796        0.1587506       -45.32828        0.1587506       -45.32831        0.5044271        59.61794
4.7946                 0.5014802        58.84224        0.1564105       -46.08969        0.1564105       -46.08971        0.5014802        58.84221
4.796                  0.4985354        58.05882         0.154039        -46.8948         0.154039       -46.89483        0.4985356        58.05879
4.7974                 0.4955836        57.26659        0.1516239       -47.74237        0.1516239        -47.7424        0.4955836        57.26657
4.7988                 0.4926138        56.46456        0.1491546       -48.63051        0.1491547       -48.63055        0.4926139        56.46452
4.8002                 0.4896145        55.65186        0.1466229       -49.55678         0.146623       -49.55681        0.4896145        55.65182
4.8016                 0.4865734        54.82784        0.1440224       -50.51816        0.1440225        -50.5182        0.4865734         54.8278
4.803                  0.4834777        53.99201        0.1413492       -51.51128        0.1413492       -51.51133        0.4834777        53.99197
4.8044                 0.4803143        53.14409        0.1386014       -52.53241        0.1386014       -52.53247        0.4803144        53.14404
4.8058                 0.4770705          52.284        0.1357797       -53.57758        0.1357797       -53.57764        0.4770705        52.28394
4.8072                 0.4737334        51.41184        0.1328867       -54.64269        0.1328867       -54.64275        0.4737334        51.41178
4.8086                 0.4702911        50.52795        0.1299275       -55.72358        0.1299275       -55.72364         0.470291        50.52788
4.81                   0.4667322        49.63285        0.1269089       -56.81619        0.1269089       -56.81626        0.4667322        49.63277
4.8114                 0.4630466        48.72725        0.1238397        -57.9167        0.1238397       -57.91675        0.4630465        48.72718
4.8128                 0.4592252        47.81205        0.1207305       -59.02155        0.1207305        -59.0216         0.459225        47.81198
4.8142                 0.4552603        46.88831        0.1175929       -60.12775        0.1175929        -60.1278        0.4552601        46.88823
4.8156                  0.451146        45.95722          0.11444       -61.23292          0.11444       -61.23301        0.4511457        45.95714
4.817                  0.4468778        45.02012        0.1112855       -62.33562        0.1112854        -62.3357        0.4468776        45.02004
4.8184                 0.4424531        44.07843        0.1081437       -63.43535        0.1081436       -63.43544        0.4424527        44.07835
4.8198                 0.4378709         43.1337         0.105029       -64.53294        0.1050289       -64.53302        0.4378704        43.13361
4.8212                 0.4331321        42.18746        0.1019556       -65.63069        0.1019555       -65.63077        0.4331317        42.18738
4.8226                 0.4282394        41.24133       0.09893694       -66.73256       0.09893684       -66.73265        0.4282389        41.24125
4.824                  0.4231973        40.29692       0.09598567       -67.84446       0.09598557       -67.84456        0.4231968        40.29683
4.8254                 0.4180117         39.3558       0.09311298       -68.97438       0.09311287       -68.97448        0.4180111        39.35571
4.8268                 0.4126901        38.41947       0.09032836       -70.13253       0.09032825       -70.13261        0.4126895        38.41939
4.8282                 0.4072412        37.48942       0.08763941       -71.33146       0.08763929       -71.33154        0.4072406        37.48933
4.8296                 0.4016751        36.56693        0.0850516       -72.58605       0.08505147       -72.58614        0.4016744        36.56684
4.831                  0.3960025         35.6532       0.08256815       -73.91358         0.082568       -73.91367        0.3960017        35.65312
4.8324                  0.390235        34.74925       0.08019016       -75.33349       0.08019002       -75.33357        0.3902342        34.74917
4.8338                 0.3843844         33.8559       0.07791673       -76.86731       0.07791658        -76.8674        0.3843836        33.85583
4.8352                 0.3784628        32.97378       0.07574529       -78.53841       0.07574512       -78.53849         0.378462        32.97371
4.8366                 0.3724821        32.10326       0.07367205       -80.37173       0.07367189       -80.37179        0.3724813        32.10319
4.838                  0.3664537        31.24446       0.07169271       -82.39352       0.07169256       -82.39358        0.3664528        31.24439
4.8394                 0.3603884        30.39726       0.06980317       -84.63104       0.06980301        -84.6311        0.3603875         30.3972
4.8408                 0.3542957        29.56128       0.06800033       -87.11229       0.06800017       -87.11234        0.3542948        29.56122
4.8422                 0.3481841        28.73585       0.06628322       -89.86558       0.06628305       -89.86564        0.3481831        28.73579
4.8436                 0.3420605        27.92006       0.06465387       -92.91917        0.0646537       -92.91921        0.3420595        27.92001
4.845                    0.33593        27.11278       0.06311843       -96.30058       0.06311825       -96.30063         0.335929        27.11273
4.8464                 0.3297958        26.31264       0.06168812       -100.0358       0.06168795       -100.0358        0.3297948        26.31261
4.8478                  0.323659        25.51812       0.06038016       -104.1478       0.06037999       -104.1479         0.323658        25.51809
4.8492                 0.3175186        24.72755       0.05921833        -108.655       0.05921817        -108.655        0.3175177        24.72752
4.8506                 0.3113714        23.93917       0.05823334       -113.5683       0.05823316       -113.5683        0.3113705        23.93915
4.852                   0.305212        23.15119       0.05746243       -118.8885       0.05746225       -118.8885         0.305211        23.15118
4.8534                 0.2990327        22.36188       0.05694844       -124.6028       0.05694828       -124.6029        0.2990317        22.36187
4.8548                  0.292824        21.56957       0.05673789       -130.6821       0.05673772       -130.6822        0.2928231        21.56957
4.8562                 0.2865744        20.77284        0.0568781       -137.0789       0.05687795       -137.0789        0.2865735        20.77284
4.8576                  0.280271        19.97045       0.05741374       -143.7279       0.05741357        -143.728        0.2802701        19.97046
4.859                  0.2738992        19.16158       0.05838294       -150.5499       0.05838279       -150.5499        0.2738984        19.16159
4.8604                 0.2674437        18.34579       0.05981396        -157.457       0.05981381       -157.4571        0.2674429        18.34581
4.8618                 0.2608885        17.52321       0.06172269       -164.3615       0.06172253       -164.3616        0.2608876        17.52324
4.8632                 0.2542169        16.69458       0.06411166       -171.1832       0.06411152       -171.1833        0.2542161         16.6946
4.8646                 0.2474127        15.86135       0.06697063       -177.8558       0.06697049       -177.8558        0.2474119        15.86138
4.866                    0.24046        15.02586       0.07027818        175.6699       0.07027806        175.6699        0.2404592        15.02589
4.8674                 0.2333439        14.19139       0.07400417        169.4254       0.07400404        169.4254        0.2333432        14.19142
4.8688                 0.2260509        13.36237       0.07811213        163.4264         0.078112        163.4264        0.2260502        13.36241
4.8702                 0.2185691        12.54457        0.0825616        157.6759       0.08256148        157.6758        0.2185685         12.5446
4.8716                 0.2108891        11.74526       0.08730995        152.1674       0.08730983        152.1674        0.2108885        11.74529