! TOUCHSTONE file generated by CST MICROWAVE STUDIO
! Date and time: Sat Nov 30 13:10:58 2024
! Project name: test_tuning.cst
! Parameters = {airCoaxOuterDiameter=3; chamferAngle=45; chamferWidth=24; connectorLength=10; drillingHoleDiameter=4.1; feedLength=60; flareDiameter=130; flareLength=70; gratingDistance=0; gratingGap=1.90274; outletLength=30; polarizerLength=134; probe1Diameter=1.3; probe1Distance=12.5; probe1Length=12; probe2Diameter=1.3; probe2Distance=0; probe2Length=12; probeLength=12; smaInnerDiameter=1.3; smaOuterDiameter=4.1; transitionCoefficient=1.33; waveguideFeedLength=30; waveguideSide=50; waveguideThickness=3; wireCount=25; wireDiameter=1.17699}
! Header version: 2024
! Port assignment regex: !\s*Touchstone port\s*([0-9]+)\s*=\s*(CST MWS port|CST DES external port|CST DES block port)\s*(.+)\s* \(\"(.*)\"\)(\s*mode\s*([0-9]+))?.*
! Touchstone port assignment:
! Touchstone port 1 = CST MWS port 1 ("Input1")
! Touchstone port 2 = CST MWS port 2 ("Input2")
# GHz S MA R 50
4.6                    0.1289396        -147.325         0.617679        73.56397        0.6176792          73.564        0.1289396       -147.3253
4.6014                 0.1361309       -148.6757        0.6205732        72.67599        0.6205735        72.67603        0.1361308        -148.676
4.6028                 0.1434918       -149.9622         0.623479        71.77008        0.6234794        71.77014        0.1434917       -149.9624
4.6042                 0.1510295       -151.1977        0.6263803        70.84505        0.6263807        70.84509        0.1510294       -151.1979
4.6056                 0.1587501       -152.3941        0.6292584        69.89988        0.6292589        69.89991          0.15875       -152.3943
4.607                  0.1666584       -153.5616        0.6320925        68.93378         0.632093        68.93381        0.1666584       -153.5618
4.6084                 0.1747577       -154.7093        0.6348606        67.94619        0.6348611        67.94621        0.1747577       -154.7094
4.6098                 0.1830492       -155.8448        0.6375389        66.93682        0.6375394        66.93685        0.1830492       -155.8449
4.6112                 0.1915325       -156.9749         0.640103        65.90564        0.6401036        65.90566        0.1915324        -156.975
4.6126                 0.2002048       -158.1053        0.6425283        64.85284        0.6425288        64.85286        0.2002048       -158.1055
4.614                  0.2090615       -159.2409        0.6447896        63.77893        0.6447901        63.77894        0.2090616        -159.241
4.6154                  0.218096       -160.3855        0.6468629        62.68458        0.6468635        62.68458        0.2180961       -160.3856
4.6168                 0.2272996       -161.5423        0.6487246        61.57076         0.648725        61.57076        0.2272996       -161.5424
4.6182                 0.2366617       -162.7138        0.6503523        60.43863        0.6503528        60.43861        0.2366619       -162.7138
4.6196                 0.2461704       -163.9018        0.6517256        59.28952        0.6517261         59.2895        0.2461705       -163.9019
4.621                  0.2558116       -165.1076        0.6528257        58.12497        0.6528261        58.12496        0.2558118       -165.1077
4.6224                 0.2655706       -166.3321        0.6536361        56.94668        0.6536365        56.94667        0.2655708       -166.3321
4.6238                 0.2754309       -167.5754         0.654143        55.75644        0.6541433        55.75643        0.2754311       -167.5755
4.6252                 0.2853755       -168.8377        0.6543347        54.55617        0.6543351        54.55615        0.2853758       -168.8378
4.6266                 0.2953865       -170.1186        0.6542031        53.34787        0.6542034        53.34784        0.2953868       -170.1186
4.628                  0.3054453       -171.4174        0.6537425        52.13357        0.6537427        52.13356        0.3054456       -171.4174
4.6294                 0.3155332       -172.7333        0.6529502        50.91538        0.6529504        50.91536        0.3155336       -172.7333
4.6308                 0.3256314       -174.0653        0.6518266        49.69539        0.6518267        49.69536        0.3256318       -174.0654
4.6322                 0.3357209       -175.4123        0.6503752        48.47567        0.6503754        48.47564        0.3357213       -175.4124
4.6336                  0.345783        -176.773        0.6486022        47.25826        0.6486023        47.25824        0.3457834       -176.7731
4.635                  0.3557995       -178.1461        0.6465166        46.04514        0.6465167        46.04511        0.3557999       -178.1461
4.6364                 0.3657525       -179.5302        0.6441302        44.83821        0.6441302        44.83819         0.365753       -179.5302
4.6378                 0.3756249        179.0761         0.641457        43.63927         0.641457        43.63925        0.3756253        179.0761
4.6392                 0.3854001        177.6742        0.6385133        42.44999        0.6385131        42.44998        0.3854007        177.6742
4.6406                 0.3950627        176.2656        0.6353173         41.2719        0.6353172        41.27189        0.3950633        176.2655
4.642                   0.404598        174.8514         0.631889        40.10635        0.6318889        40.10634        0.4045985        174.8514
4.6434                 0.4139922        173.4332        0.6282497        38.95454        0.6282494        38.95454        0.4139928        173.4331
4.6448                 0.4232327        172.0121        0.6244215        37.81747        0.6244212        37.81746        0.4232333         172.012
4.6462                 0.4323079        170.5894        0.6204273         36.6959         0.620427        36.69589        0.4323085        170.5893
4.6476                 0.4412073        169.1663        0.6162903         35.5904        0.6162902         35.5904        0.4412078        169.1662
4.649                  0.4499213        167.7438        0.6120341        34.50132        0.6120339        34.50132        0.4499219        167.7437
4.6504                 0.4584417        166.3229         0.607681        33.42874        0.6076807        33.42875        0.4584423        166.3229
4.6518                  0.466761        164.9047         0.603253        32.37256        0.6032527        32.37257        0.4667616        164.9046
4.6532                 0.4748729        163.4899        0.5987712         31.3324         0.598771        31.33241        0.4748734        163.4898
4.6546                  0.482772        162.0793         0.594255        30.30768        0.5942547         30.3077        0.4827725        162.0793
4.656                  0.4904537        160.6737        0.5897218        29.29761        0.5897217        29.29762        0.4904543        160.6737
4.6574                 0.4979144        159.2737        0.5851877        28.30118        0.5851876         28.3012         0.497915        159.2736
4.6588                 0.5051512        157.8797        0.5806661        27.31724        0.5806659        27.31726        0.5051517        157.8797
4.6602                 0.5121616        156.4924         0.576168        26.34446         0.576168        26.34449        0.5121621        156.4924
4.6616                  0.518944        155.1121        0.5717022        25.38141        0.5717022        25.38144        0.5189445         155.112
4.663                  0.5254971        153.7391        0.5672748        24.42657        0.5672747         24.4266        0.5254976         153.739
4.6644                 0.5318201        152.3737         0.562889        23.47835         0.562889        23.47838        0.5318206        152.3737
4.6658                 0.5379126        151.0162        0.5585461        22.53515        0.5585461        22.53518        0.5379131        151.0161
4.6672                 0.5437743        149.6667        0.5542443         21.5954        0.5542442        21.59543        0.5437748        149.6667
4.6686                 0.5494051        148.3254        0.5499799        20.65757          0.54998         20.6576        0.5494056        148.3254
4.67                   0.5548049        146.9924        0.5457471        19.72023        0.5457471        19.72026        0.5548054        146.9924
4.6714                 0.5599743        145.6677         0.541538        18.78207        0.5415381         18.7821        0.5599748        145.6677
4.6728                  0.564913        144.3516        0.5373435        17.84195        0.5373436        17.84197        0.5649135        144.3515
4.6742                 0.5696213        143.0438        0.5331529        16.89888        0.5331531         16.8989        0.5696219        143.0438
4.6756                 0.5740993        141.7447        0.5289548         15.9521        0.5289549        15.95212        0.5740999        141.7446
4.677                  0.5783472        140.4541        0.5247371        15.00105        0.5247372        15.00107        0.5783478        140.4541
4.6784                  0.582365        139.1722        0.5204874        14.04542        0.5204875        14.04543        0.5823656        139.1722
4.6798                 0.5861529         137.899        0.5161936         13.0851        0.5161938        13.08512        0.5861534         137.899
4.6812                 0.5897108        136.6347        0.5118439        12.12026         0.511844        12.12028        0.5897114        136.6347
4.6826                 0.5930391        135.3793        0.5074274        11.15128        0.5074275        11.15129        0.5930395        135.3793
4.684                  0.5961379        134.1331         0.502934        10.17877        0.5029342        10.17879        0.5961384         134.133
4.6854                 0.5990078        132.8961        0.4983552        9.203562        0.4983553         9.20357        0.5990084        132.8961
4.6868                 0.6016496        131.6686        0.4936838         8.22667        0.4936839        8.226677          0.60165        131.6686
4.6882                 0.6040642        130.4509        0.4889145        7.249301        0.4889146        7.249306        0.6040648        130.4509
4.6896                 0.6062533        129.2433        0.4840437         6.27281        0.4840438        6.272815        0.6062539        129.2433
4.691                  0.6082187        128.0461          0.47907        5.298687        0.4790701        5.298692        0.6082192         128.046
4.6924                 0.6099627        126.8595        0.4739939        4.328522         0.473994        4.328526        0.6099633        126.8595
4.6938                 0.6114885         125.684         0.468818        3.363976         0.468818         3.36398         0.611489         125.684
4.6952                 0.6127997        124.5199         0.463547        2.406754         0.463547        2.406758        0.6128003        124.5199
4.6966                 0.6139009        123.3677        0.4581875        1.458565        0.4581875         1.45857        0.6139014        123.3677
4.698                  0.6147969        122.2278        0.4527482       0.5210945        0.4527482       0.5211003        0.6147975        122.2278
4.6994                 0.6154941        121.1006        0.4472392      -0.4040346        0.4472391      -0.4040276        0.6154947        121.1005
4.7008                 0.6159988        119.9863        0.4416724       -1.315296        0.4416724       -1.315288        0.6159995        119.9863
4.7022                 0.6163189        118.8856        0.4360611       -2.211297         0.436061       -2.211286        0.6163194        118.8855
4.7036                 0.6164626        117.7986        0.4304195       -3.090807        0.4304194       -3.090795        0.6164631        117.7985
4.705                  0.6164388        116.7257        0.4247627       -3.952801        0.4247626       -3.952801        0.6164393        116.7256
4.7064                 0.6162575        115.6671        0.4191062       -4.796469        0.4191062        -4.79647        0.6162579         115.667
4.7078                 0.6159289         114.623         0.413466       -5.621282         0.413466       -5.621255        0.6159294         114.623
4.7092                  0.615464        113.5936        0.4078577       -6.426959        0.4078576       -6.426932        0.6154645        113.5936
4.7106                 0.6148742        112.5789        0.4022965       -7.213564        0.4022964        -7.21354        0.6148747        112.5789
4.712                  0.6141712        111.5789        0.3967968       -7.981415        0.3967968       -7.981387        0.6141715        111.5789
4.7134                 0.6133665        110.5934         0.391372       -8.731179         0.391372       -8.731151        0.6133669        110.5934
4.7148                 0.6124723        109.6222         0.386034       -9.463825         0.386034       -9.463794        0.6124727        109.6222
4.7162                 0.6115002        108.6651        0.3807932       -10.18062        0.3807932       -10.18059        0.6115006         108.665
4.7176                 0.6104613        107.7214        0.3756578       -10.88311        0.3756578       -10.88307        0.6104618        107.7213
4.719                  0.6093669        106.7907        0.3706342       -11.57308        0.3706343       -11.57304        0.6093672        106.7906
4.7204                  0.608227        105.8723        0.3657265       -12.25253        0.3657266        -12.2525        0.6082274        105.8723
4.7218                 0.6070511        104.9656        0.3609364       -12.92363        0.3609366       -12.92359        0.6070515        104.9655
4.7232                 0.6058477        104.0696        0.3562636       -13.58863        0.3562638        -13.5886        0.6058481        104.0696
4.7246                 0.6046244        103.1834        0.3517052       -14.24986        0.3517053       -14.24983        0.6046247        103.1834
4.726                  0.6033871        102.3062        0.3472562       -14.90963        0.3472563        -14.9096        0.6033874        102.3062
4.7274                 0.6021409        101.4369        0.3429096       -15.57018        0.3429098       -15.57014        0.6021412        101.4369
4.7288                 0.6008892        100.5743        0.3386568        -16.2336         0.338657       -16.23357        0.6008895        100.5743
4.7302                 0.5996343        99.71748        0.3344874       -16.90181        0.3344876       -16.90178        0.5996346        99.71748
4.7316                 0.5983767        98.86529          0.33039       -17.57649        0.3303902       -17.57646         0.598377        98.86529
4.733                  0.5971158        98.01668         0.326352       -18.25903        0.3263522         -18.259         0.597116        98.01668
4.7344                 0.5958494        97.17064        0.3223604       -18.95048        0.3223607       -18.95046        0.5958496        97.17064
4.7358                 0.5945743        96.32618        0.3184022       -19.65156        0.3184024       -19.65155        0.5945745        96.32618
4.7372                 0.5932856        95.48241         0.314464       -20.36261        0.3144643        -20.3626        0.5932859        95.48241
4.7386                  0.591978        94.63849        0.3105335        -21.0836        0.3105337       -21.08359        0.5919783        94.63849
4.74                   0.5906448        93.79373        0.3065986       -21.81409        0.3065988       -21.81409         0.590645        93.79373
4.7414                 0.5892787        92.94757        0.3026487       -22.55329        0.3026489       -22.55329         0.589279        92.94757
4.7428                  0.587872        92.09947        0.2986746       -23.30005        0.2986748       -23.30006        0.5878722        92.09947
4.7442                 0.5864162        91.24907        0.2946683       -24.05288        0.2946684       -24.05289        0.5864164        91.24907
4.7456                 0.5849033        90.39623        0.2906239          -24.81        0.2906241          -24.81        0.5849035        90.39623
4.747                  0.5833249        89.54086        0.2865374       -25.56934        0.2865376       -25.56934        0.5833251        89.54086
4.7484                 0.5816729        88.68297        0.2824068       -26.32862        0.2824069       -26.32863         0.581673        88.68297
4.7498                 0.5799399        87.82276         0.278232       -27.08539        0.2782322       -27.08541        0.5799401        87.82276
4.7512                 0.5781189        86.96055        0.2740152       -27.83707        0.2740153       -27.83709         0.578119        86.96055
4.7526                 0.5762038        86.09675        0.2697606       -28.58101        0.2697607       -28.58103        0.5762039        86.09675
4.754                  0.5741895        85.23187        0.2654744       -29.31454        0.2654745       -29.31456        0.5741896        85.23187
4.7554                 0.5720722        84.36653        0.2611644       -30.03507        0.2611645        -30.0351        0.5720723        84.36653
4.7568                  0.569849        83.50142        0.2568403       -30.74012        0.2568404       -30.74014        0.5698491        83.50142
4.7582                 0.5675185        82.63726        0.2525134       -31.42741        0.2525134       -31.42742        0.5675185        82.63726
4.7596                 0.5650805        81.77483        0.2481958        -32.0949        0.2481958       -32.09491        0.5650805        81.77483
4.761                  0.5625364        80.91489        0.2439007       -32.74092        0.2439007       -32.74094        0.5625364        80.91489
4.7624                 0.5598888        80.05831         0.239642       -33.36419         0.239642       -33.36421        0.5598889        80.05831
4.7638                 0.5571419        79.20578        0.2354338       -33.96392        0.2354338       -33.96393        0.5571419        79.20578
4.7652                 0.5543009        78.35805        0.2312902       -34.53983        0.2312901       -34.53984        0.5543009        78.35805
4.7666                 0.5513721        77.51574        0.2272246       -35.09224        0.2272246       -35.09225        0.5513722        77.51577
4.768                  0.5483634        76.67953        0.2232498       -35.62211        0.2232497       -35.62212        0.5483634        76.67953
4.7694                 0.5452828        75.84979        0.2193773       -36.13102        0.2193773       -36.13103        0.5452828        75.84979
4.7708                 0.5421398        75.02693        0.2156171       -36.62123        0.2156171       -36.62124        0.5421397        75.02693
4.7722                 0.5389438        74.21115        0.2119773       -37.09563        0.2119773       -37.09563        0.5389437        74.21115
4.7736                 0.5357047        73.40251        0.2084639        -37.5577        0.2084639        -37.5577        0.5357047        73.40251
4.775                  0.5324328        72.60096        0.2050805       -38.01147        0.2050805       -38.01147        0.5324327        72.60099
4.7764                 0.5291377        71.80625        0.2018284        -38.4614        0.2018284        -38.4614        0.5291377        71.80628
4.7778                 0.5258291        71.01798         0.198706       -38.91231         0.198706       -38.91231        0.5258289        71.01798
4.7792                 0.5225155        70.23554        0.1957093       -39.36922        0.1957093       -39.36922        0.5225154        70.23555
4.7806                 0.5192051        69.45819         0.192832       -39.83727        0.1928321       -39.83727        0.5192049        69.45822
4.782                  0.5159047         68.6851        0.1900653       -40.32148        0.1900653       -40.32148        0.5159045        68.68513
4.7834                   0.51262         67.9152        0.1873981       -40.82674        0.1873981       -40.82674        0.5126198        67.91522
4.7848                 0.5093552        67.14735        0.1848179       -41.35757         0.184818       -41.35757        0.5093551        67.14737
4.7862                 0.5061131         66.3803        0.1823106       -41.91806        0.1823106       -41.91808        0.5061129        66.38033
4.7876                 0.5028945        65.61275        0.1798609       -42.51178        0.1798609       -42.51179        0.5028944        65.61276
4.789                   0.499699        64.84329        0.1774529       -43.14166        0.1774529       -43.14168        0.4996988         64.8433
4.7904                 0.4965241        64.07054        0.1750706       -43.80995        0.1750706       -43.80996        0.4965239        64.07054
4.7918                 0.4933657        63.29308        0.1726981        -44.5182        0.1726981       -44.51822        0.4933655        63.29311
4.7932                 0.4902182        62.50958          0.17032       -45.26724          0.17032       -45.26726         0.490218         62.5096
4.7946                 0.4870741        61.71873        0.1679219       -46.05721        0.1679218       -46.05722        0.4870739        61.71876
4.796                  0.4839251        60.91934        0.1654905       -46.88755        0.1654904       -46.88757        0.4839249        60.91936
4.7974                 0.4807611        60.11032        0.1630141       -47.75708        0.1630141       -47.75709        0.4807609        60.11034
4.7988                 0.4775712        59.29072         0.160483       -48.66401         0.160483       -48.66404        0.4775709        59.29074
4.8002                 0.4743436        58.45976        0.1578891        -49.6061         0.157889       -49.60613        0.4743434        58.45978
4.8016                  0.471066        57.61683        0.1552265       -50.58059        0.1552264       -50.58062        0.4710658        57.61686
4.803                  0.4677259        56.76155        0.1524915       -51.58439        0.1524914       -51.58442        0.4677256        56.76157
4.8044                 0.4643103        55.89367        0.1496827       -52.61413        0.1496826       -52.61415        0.4643101        55.89369
4.8058                 0.4608069        55.01321        0.1468008       -53.66624        0.1468007       -53.66625        0.4608066        55.01323
4.8072                 0.4572034        54.12035        0.1438486       -54.73703        0.1438485       -54.73704        0.4572032        54.12038
4.8086                 0.4534885        53.21551        0.1408312       -55.82285        0.1408311       -55.82286        0.4534882        53.21554
4.81                   0.4496515        52.29929        0.1377555       -56.92012        0.1377554       -56.92013        0.4496513        52.29932
4.8114                 0.4456831        51.37248        0.1346301        -58.0255          0.13463       -58.02551        0.4456829        51.37251
4.8128                 0.4415752        50.43605        0.1314654       -59.13603        0.1314652       -59.13603         0.441575        50.43608
4.8142                 0.4373211        49.49111        0.1282729       -60.24919        0.1282727       -60.24918        0.4373207        49.49114
4.8156                 0.4329156        48.53894        0.1250652       -61.36314         0.125065       -61.36312        0.4329152        48.53898
4.817                  0.4283553        47.58092        0.1218559       -62.47684        0.1218557       -62.47681         0.428355        47.58095
4.8184                 0.4236385        46.61855        0.1186587       -63.59023        0.1186585       -63.59018        0.4236382        46.61859
4.8198                 0.4187653        45.65338        0.1154877       -64.70437        0.1154875       -64.70433         0.418765        45.65342
4.8212                 0.4137376        44.68702        0.1123564       -65.82173        0.1123562       -65.82166        0.4137372        44.68706
4.8226                 0.4085587        43.72111        0.1092779        -66.9462        0.1092777       -66.94611        0.4085584        43.72115
4.824                   0.403234        42.75728        0.1062642       -68.08339         0.106264       -68.08332        0.4032336        42.75731
4.8254                 0.3977701        41.79712         0.103326       -69.24072        0.1033258       -69.24062        0.3977697        41.79715
4.8268                  0.392175        40.84216        0.1004722       -70.42747         0.100472       -70.42737        0.3921746         40.8422
4.8282                 0.3864582        39.89384       0.09770999        -71.6549       0.09770984       -71.65479        0.3864578        39.89388
4.8296                 0.3806298        38.95348        0.0950444       -72.93624       0.09504428       -72.93612        0.3806294        38.95353
4.831                  0.3747011        38.02226       0.09247836        -74.2866       0.09247825       -74.28646        0.3747006        38.02232
4.8324                 0.3686836        37.10117       0.09001264       -75.72294       0.09001255       -75.72279        0.3686832        37.10122
4.8338                 0.3625893          36.191       0.08764608       -77.26381         0.087646       -77.26366        0.3625889        36.19106
4.8352                 0.3564302        35.29233       0.08537587       -78.92934        0.0853758       -78.92916        0.3564297        35.29239
4.8366                 0.3502178        34.40548       0.08319792       -80.74077       0.08319788       -80.74061        0.3502174        34.40554
4.838                  0.3439634        33.53053       0.08110748        -82.7205       0.08110745       -82.72033        0.3439629        33.53059
4.8394                 0.3376771        32.66726       0.07909974       -84.89171       0.07909972       -84.89152        0.3376768        32.66731
4.8408                 0.3313684        31.81521       0.07717063       -87.27813       0.07717063       -87.27795        0.3313679        31.81527
4.8422                 0.3250447        30.97364       0.07531765       -89.90392       0.07531767       -89.90373        0.3250443         30.9737
4.8436                 0.3187126        30.14154       0.07354081       -92.79331       0.07354084       -92.79312        0.3187122        30.14161
4.845                  0.3123764        29.31767       0.07184345       -95.97024        0.0718435       -95.97005         0.312376        29.31774
4.8464                 0.3060386        28.50057       0.07023328       -99.45793       0.07023333       -99.45773        0.3060381        28.50064
4.8478                 0.2996996         27.6886       0.06872309        -103.278       0.06872315       -103.2778        0.2996992        27.68867
4.8492                 0.2933578        26.87998       0.06733153       -107.4493       0.06733161       -107.4491        0.2933574        26.88005
4.8506                 0.2870093        26.07287       0.06608361       -111.9866       0.06608369       -111.9865        0.2870089        26.07294
4.852                  0.2806482        25.26536        0.0650107       -116.8984       0.06501077       -116.8982        0.2806478        25.26544
4.8534                 0.2742662        24.45565       0.06415027       -122.1842       0.06415034       -122.1841        0.2742659        24.45573
4.8548                 0.2678536        23.64201       0.06354476       -127.8323       0.06354483       -127.8321        0.2678532        23.64209
4.8562                 0.2613986        22.82295       0.06323978       -133.8169       0.06323985       -133.8168        0.2613982        22.82303
4.8576                  0.254888        21.99726       0.06328157       -140.0972       0.06328164        -140.097        0.2548877        21.99734
4.859                  0.2483075        21.16411       0.06371374        -146.617       0.06371381       -146.6168        0.2483071        21.16419
4.8604                 0.2416418        20.32315       0.06457379       -153.3077       0.06457387       -153.3075        0.2416414        20.32323
4.8618                  0.234875        19.47464       0.06588997       -160.0927       0.06589004       -160.0925        0.2348746        19.47473
4.8632                 0.2279912        18.61954       0.06767884       -166.8936       0.06767891       -166.8935        0.2279908        18.61962
4.8646                 0.2209747        17.75962       0.06994422       -173.6371       0.06994429        -173.637        0.2209743         17.7597
4.866                  0.2138104        16.89766       0.07267729        179.7399       0.07267736          179.74          0.21381        16.89775
4.8674                 0.2064841        16.03759       0.07585802        173.2865       0.07585808        173.2866        0.2064837        16.03767
4.8688                 0.1989833        15.18468       0.07945713        167.0368        0.0794572        167.0369        0.1989829        15.18476
4.8702                 0.1912974        14.34586       0.08343857        161.0106       0.08343863        161.0107         0.191297        14.34594
4.8716                  0.183418        13.52999       0.08776163        155.2157       0.08776169        155.2158        0.1834176        13.53007