! TOUCHSTONE file generated by CST MICROWAVE STUDIO
! Date and time: Sat Nov 30 13:11:00 2024
! Project name: test_tuning.cst
! Parameters = {airCoaxOuterDiameter=3; chamferAngle=45; chamferWidth=24; connectorLength=10; drillingHoleDiameter=4.1; feedLength=60; flareDiameter=130; flareLength=70; gratingDistance=0; gratingGap=1.90274; outletLength=30; polarizerLength=134; probe1Diameter=1.3; probe1Distance=15; probe1Length=12; probe2Diameter=1.3; probe2Distance=0; probe2Length=12; probeLength=12; smaInnerDiameter=1.3; smaOuterDiameter=4.1; transitionCoefficient=1.33; waveguideFeedLength=30; waveguideSide=50; waveguideThickness=3; wireCount=25; wireDiameter=1.17699}
! Header version: 2024
! Port assignment regex: !\s*Touchstone port\s*([0-9]+)\s*=\s*(CST MWS port|CST DES external port|CST DES block port)\s*(.+)\s* \(\"(.*)\"\)(\s*mode\s*([0-9]+))?.*
! Touchstone port assignment:
! Touchstone port 1 = CST MWS port 1 ("Input1")
! Touchstone port 2 = CST MWS port 2 ("Input2")
# GHz S MA R 50
4.6                    0.2759595       -166.7366        0.5922273        64.23817        0.5922277         64.2382        0.2759602       -166.7368
4.6014                 0.2814928       -167.2757        0.5935713        63.42096        0.5935717        63.42098        0.2814935       -167.2758
4.6028                 0.2870852        -167.807        0.5948992        62.59136        0.5948996        62.59136        0.2870858       -167.8071
4.6042                 0.2927492       -168.3323        0.5961989        61.74841        0.5961993         61.7484        0.2927498       -168.3324
4.6056                 0.2984968       -168.8536        0.5974566        60.89118        0.5974569        60.89118        0.2984973       -168.8537
4.607                  0.3043386       -169.3731        0.5986562        60.01904        0.5986566        60.01905        0.3043391       -169.3732
4.6084                 0.3102839       -169.8931         0.599781        59.13151        0.5997813        59.13151        0.3102844       -169.8933
4.6098                 0.3163406       -170.4163        0.6008125        58.22832        0.6008127        58.22831         0.316341       -170.4164
4.6112                 0.3225146       -170.9449        0.6017316        57.30945        0.6017319        57.30943         0.322515       -170.9451
4.6126                 0.3288101       -171.4816        0.6025191        56.37509        0.6025193        56.37508        0.3288104       -171.4818
4.614                   0.335229       -172.0287        0.6031554        55.42571        0.6031556         55.4257        0.3352292       -172.0289
4.6154                 0.3417714       -172.5885        0.6036217        54.46199         0.603622        54.46198        0.3417716       -172.5887
4.6168                 0.3484353       -173.1631        0.6038999        53.48484        0.6039001        53.48483        0.3484355       -173.1632
4.6182                 0.3552166       -173.7544        0.6039728         52.4954         0.603973        52.49539        0.3552168       -173.7545
4.6196                 0.3621096       -174.3639        0.6038249        51.49499         0.603825        51.49499        0.3621097       -174.3641
4.621                  0.3691063       -174.9933        0.6034424        50.48516        0.6034425        50.48515        0.3691064       -174.9934
4.6224                 0.3761976       -175.6435        0.6028138        49.46757         0.602814        49.46756        0.3761976       -175.6436
4.6238                 0.3833725       -176.3154        0.6019296        48.44407        0.6019297        48.44406        0.3833725       -176.3155
4.6252                 0.3906189       -177.0098        0.6007831        47.41661        0.6007832        47.41661        0.3906189       -177.0099
4.6266                 0.3979238       -177.7268        0.5993702        46.38726        0.5993702        46.38726        0.3979238       -177.7269
4.628                  0.4052731       -178.4666        0.5976894        45.35815        0.5976895        45.35814        0.4052731       -178.4667
4.6294                 0.4126523       -179.2291        0.5957426        44.33143        0.5957427        44.33142        0.4126522       -179.2292
4.6308                 0.4200463         179.986         0.593534        43.30933        0.5935341        43.30932        0.4200462         179.986
4.6322                 0.4274398        179.1794        0.5910711        42.29401        0.5910713          42.294        0.4274398        179.1793
4.6336                 0.4348178        178.3516        0.5883641        41.28764        0.5883643        41.28763        0.4348177        178.3516
4.635                  0.4421651        177.5036         0.585426        40.29229        0.5854261        40.29228         0.442165        177.5035
4.6364                  0.449467        176.6362         0.582272        39.30995        0.5822722        39.30994        0.4494669        176.6361
4.6378                 0.4567092        175.7505        0.5789201        38.34249        0.5789203        38.34249        0.4567091        175.7505
4.6392                 0.4638781        174.8476        0.5753902        37.39162        0.5753904        37.39161        0.4638781        174.8476
4.6406                 0.4709608        173.9287        0.5717041        36.45884        0.5717042        36.45883        0.4709608        173.9287
4.642                  0.4779453         172.995        0.5678849        35.54549         0.567885        35.54549        0.4779452        172.9949
4.6434                   0.48482        172.0476         0.563957        34.65263        0.5639572        34.65263        0.4848199        172.0476
4.6448                 0.4915747        171.0878        0.5599459        33.78109        0.5599461        33.78108        0.4915747        171.0878
4.6462                 0.4982002        170.1168         0.555877        32.93137        0.5558772        32.93136        0.4982002        170.1167
4.6476                 0.5046877        169.1357         0.551776        32.10372        0.5517763         32.1037        0.5046878        169.1356
4.649                    0.51103        168.1456        0.5476681        31.29804        0.5476683        31.29802        0.5110301        168.1455
4.6504                 0.5172203        167.1476        0.5435774        30.51392        0.5435776         30.5139        0.5172203        167.1475
4.6518                 0.5232529        166.1427        0.5395272        29.75063        0.5395274        29.75062        0.5232528        166.1427
4.6532                 0.5291226        165.1318        0.5355385        29.00712        0.5355388         29.0071        0.5291226        165.1318
4.6546                 0.5348256        164.1159        0.5316309        28.28201        0.5316311          28.282        0.5348256        164.1159
4.656                  0.5403582        163.0957        0.5278209        27.57369        0.5278211        27.57367        0.5403583        163.0957
4.6574                 0.5457174         162.072        0.5241229        26.88025         0.524123        26.88023        0.5457175        162.0719
4.6588                 0.5509011        161.0454         0.520548        26.19957        0.5205481        26.19955        0.5509012        161.0454
4.6602                 0.5559069        160.0166        0.5171043        25.52936        0.5171044        25.52934        0.5559069        160.0166
4.6616                 0.5607334        158.9861        0.5137966        24.86721        0.5137967        24.86718        0.5607334        158.9861
4.663                  0.5653791        157.9545        0.5106267         24.2106        0.5106269        24.21058        0.5653791        157.9545
4.6644                 0.5698428        156.9221        0.5075931        23.55704        0.5075932        23.55701         0.569843         156.922
4.6658                 0.5741236        155.8893        0.5046909        22.90404        0.5046911        22.90401        0.5741237        155.8893
4.6672                 0.5782202        154.8566        0.5019128         22.2492        0.5019128        22.24918        0.5782204        154.8566
4.6686                 0.5821319        153.8242        0.4992483         21.5903        0.4992484        21.59028         0.582132        153.8242
4.67                   0.5858574        152.7925         0.496685        20.92527        0.4966851        20.92524        0.5858575        152.7925
4.6714                 0.5893958        151.7617        0.4942082        20.25229        0.4942083        20.25227         0.589396        151.7617
4.6728                  0.592746        150.7322        0.4918018        19.56981        0.4918019        19.56978        0.5927461        150.7321
4.6742                 0.5959067        149.7041        0.4894483        18.87655        0.4894484        18.87653        0.5959067        149.7041
4.6756                 0.5988767        148.6779        0.4871297        18.17159        0.4871297        18.17156        0.5988768        148.6779
4.677                  0.6016549        147.6538        0.4848273        17.45426        0.4848273        17.45424         0.601655        147.6538
4.6784                 0.6042403        146.6321        0.4825228         16.7243        0.4825228        16.72428        0.6042405         146.632
4.6798                 0.6066317        145.6131        0.4801981         15.9817        0.4801982        15.98168        0.6066317        145.6131
4.6812                 0.6088283        144.5973        0.4778365         15.2268        0.4778365        15.22677        0.6088283        144.5973
4.6826                 0.6108294        143.5849        0.4754218         14.4602        0.4754218        14.46017        0.6108295        143.5849
4.684                  0.6126348        142.5765        0.4729398        13.68279        0.4729398        13.68277        0.6126349        142.5765
4.6854                 0.6142445        141.5725         0.470378         12.8957        0.4703779        12.89567        0.6142446        141.5725
4.6868                 0.6156589        140.5733        0.4677257        12.10025        0.4677257        12.10022        0.6156591        140.5733
4.6882                 0.6168791        139.5794        0.4649747        11.29796        0.4649747        11.29793        0.6168792        139.5794
4.6896                 0.6179068        138.5913        0.4621187        10.49047        0.4621187        10.49045        0.6179069        138.5913
4.691                  0.6187441        137.6096        0.4591541        9.679549        0.4591541        9.679525        0.6187442        137.6096
4.6924                 0.6193939        136.6348        0.4560795        8.867009        0.4560795        8.866985        0.6193941        136.6348
4.6938                 0.6198603        135.6674        0.4528957        8.054705        0.4528956        8.054681        0.6198604        135.6674
4.6952                 0.6201474         134.708        0.4496059         7.24448        0.4496059        7.244455        0.6201476        134.7081
4.6966                 0.6202608        133.7572        0.4462156        6.438129        0.4462156        6.438104         0.620261        133.7572
4.698                  0.6202064        132.8152        0.4427321        5.637367        0.4427321        5.637342        0.6202066        132.8153
4.6994                 0.6199913        131.8828        0.4391645        4.843788        0.4391644        4.843763        0.6199916        131.8828
4.7008                  0.619623        130.9603        0.4355234        4.058835        0.4355233         4.05881        0.6196233        130.9603
4.7022                 0.6191101        130.0481        0.4318207        3.283769        0.4318207        3.283743        0.6191103        130.0481
4.7036                 0.6184614        129.1465        0.4280695        2.519637        0.4280695        2.519611        0.6184616        129.1465
4.705                  0.6176865        128.2557        0.4242835        1.767248        0.4242834        1.767222        0.6176868        128.2558
4.7064                 0.6167956        127.3761        0.4204765        1.027158        0.4204764        1.027131        0.6167959        127.3761
4.7078                 0.6157988        126.5075        0.4166627       0.2996441        0.4166627       0.2996182        0.6157991        126.5075
4.7092                 0.6147071        125.6501        0.4128559      -0.4152943        0.4128558      -0.4153216        0.6147074        125.6501
4.7106                 0.6135308        124.8037        0.4090692        -1.11795        0.4090691       -1.117975        0.6135312        124.8037
4.712                  0.6122808        123.9682        0.4053149       -1.808891        0.4053147       -1.808916        0.6122811        123.9682
4.7134                 0.6109673        123.1432        0.4016038       -2.488967        0.4016038       -2.488991        0.6109676        123.1432
4.7148                 0.6096004        122.3283        0.3979459       -3.159274        0.3979458       -3.159296        0.6096007        122.3283
4.7162                 0.6081894        121.5231        0.3943487       -3.821138        0.3943486        -3.82116        0.6081897        121.5231
4.7176                  0.606743        120.7269        0.3908185       -4.476085        0.3908184       -4.476106        0.6067433        120.7269
4.719                  0.6052691         119.939        0.3873592       -5.125792        0.3873591       -5.125811        0.6052694         119.939
4.7204                 0.6037745        119.1587        0.3839729       -5.772051        0.3839728       -5.772069        0.6037748        119.1587
4.7218                  0.602265         118.385        0.3806595       -6.416721        0.3806594       -6.416737        0.6022653         118.385
4.7232                 0.6007452        117.6171        0.3774169        -7.06167        0.3774168       -7.061685        0.6007455        117.6171
4.7246                 0.5992182        116.8541        0.3742411       -7.708736        0.3742409        -7.70875        0.5992185        116.8541
4.726                   0.597686         116.095        0.3711263       -8.359663        0.3711261       -8.359674        0.5976864         116.095
4.7274                 0.5961493        115.3387         0.368065       -9.016065        0.3680649       -9.016076        0.5961495        115.3387
4.7288                 0.5946071        114.5843        0.3650486       -9.679375        0.3650485       -9.679381        0.5946074        114.5843
4.7302                 0.5930574        113.8309        0.3620671       -10.35081         0.362067       -10.35082        0.5930577        113.8309
4.7316                  0.591497        113.0776          0.35911       -11.03134        0.3591098       -11.03134        0.5914973        113.0776
4.733                  0.5899212        112.3234        0.3561659       -11.72166        0.3561658       -11.72166        0.5899215        112.3234
4.7344                 0.5883245        111.5677        0.3532237       -12.42216        0.3532236       -12.42216        0.5883247        111.5677
4.7358                 0.5867005        110.8097         0.350272       -13.13297        0.3502719       -13.13297        0.5867007        110.8097
4.7372                 0.5850419        110.0489        0.3473002       -13.85387        0.3473001       -13.85387        0.5850422        110.0489
4.7386                 0.5833411        109.2849        0.3442981       -14.58437         0.344298       -14.58437        0.5833414        109.2849
4.74                   0.5815898        108.5172        0.3412567        -15.3237        0.3412566        -15.3237        0.5815901        108.5172
4.7414                 0.5797798        107.7457        0.3381682       -16.07081        0.3381681       -16.07081          0.57978        107.7457
4.7428                 0.5779024        106.9703         0.335026       -16.82441        0.3350259       -16.82441        0.5779026        106.9703
4.7442                 0.5759497        106.1909        0.3318254       -17.58301        0.3318254         -17.583          0.57595        106.1909
4.7456                 0.5739139        105.4079        0.3285633       -18.34494        0.3285633       -18.34493        0.5739141        105.4079
4.747                  0.5717878        104.6214        0.3252383       -19.10837        0.3252383       -19.10837        0.5717879        104.6214
4.7484                 0.5695648        103.8319         0.321851        -19.8714        0.3218509        -19.8714        0.5695649        103.8319
4.7498                 0.5672394        103.0399        0.3184036       -20.63207        0.3184037       -20.63207        0.5672396        103.0399
4.7512                 0.5648069        102.2459        0.3149005        -21.3884        0.3149006        -21.3884        0.5648071        102.2459
4.7526                 0.5622639        101.4506        0.3113475       -22.13846        0.3113476       -22.13846        0.5622641        101.4506
4.754                  0.5596085        100.6547        0.3077522       -22.88039        0.3077522       -22.88039        0.5596086        100.6547
4.7554                 0.5568393        99.85903        0.3041234       -23.61251        0.3041234       -23.61251        0.5568395        99.85903
4.7568                 0.5539569        99.06433        0.3004713       -24.33329        0.3004713        -24.3333         0.553957        99.06435
4.7582                  0.550963        98.27146        0.2968072       -25.04147        0.2968073       -25.04148        0.5509631        98.27146
4.7596                 0.5478605        97.48119        0.2931431       -25.73606        0.2931432       -25.73607        0.5478606        97.48119
4.761                  0.5446536        96.69423        0.2894914       -26.41638        0.2894914       -26.41639        0.5446537        96.69423
4.7624                 0.5413477        95.91133        0.2858647       -27.08216        0.2858648       -27.08217        0.5413478        95.91133
4.7638                 0.5379492        95.13314        0.2822756       -27.73347        0.2822756       -27.73349        0.5379493        95.13314
4.7652                 0.5344655        94.36022         0.278736       -28.37086         0.278736       -28.37089        0.5344656        94.36022
4.7666                 0.5309046        93.59296        0.2752573       -28.99528        0.2752573       -28.99529        0.5309046        93.59296
4.768                   0.527275        92.83175        0.2718496       -29.60811        0.2718496       -29.60812         0.527275        92.83175
4.7694                 0.5235857        92.07673        0.2685219       -30.21115        0.2685219       -30.21117        0.5235858        92.07679
4.7708                 0.5198462        91.32802        0.2652812       -30.80662        0.2652812       -30.80665        0.5198462        91.32802
4.7722                 0.5160652        90.58549        0.2621331       -31.39711        0.2621331       -31.39714        0.5160652        90.58549
4.7736                 0.5122517        89.84884         0.259081       -31.98547         0.259081       -31.98549        0.5122517        89.84887
4.775                   0.508414        89.11772        0.2561261       -32.57485        0.2561262       -32.57487         0.508414        89.11772
4.7764                 0.5045596        88.39151        0.2532678       -33.16854        0.2532678       -33.16857        0.5045596        88.39151
4.7778                 0.5006954        87.66951        0.2505028       -33.76994        0.2505028       -33.76997        0.5006954        87.66951
4.7792                 0.4968268        86.95084        0.2478262       -34.38246        0.2478262        -34.3825        0.4968268        86.95086
4.7806                 0.4929582        86.23458         0.245231       -35.00945         0.245231       -35.00949        0.4929582        86.23458
4.782                  0.4890925        85.51956        0.2427083       -35.65409        0.2427083       -35.65412        0.4890925        85.51958
4.7834                 0.4852311        84.80464        0.2402479       -36.31931        0.2402478       -36.31935        0.4852311        84.80466
4.7848                 0.4813739        84.08856         0.237838       -37.00779        0.2378379       -37.00782        0.4813739        84.08858
4.7862                 0.4775192        83.37004        0.2354661        -37.7218        0.2354661       -37.72183        0.4775193        83.37007
4.7876                 0.4736638        82.64782        0.2331192       -38.46323        0.2331191       -38.46326        0.4736637        82.64784
4.789                  0.4698025         81.9206        0.2307835       -39.23353        0.2307834       -39.23356        0.4698025        81.92062
4.7904                 0.4659292        81.18713        0.2284458       -40.03369        0.2284457       -40.03372        0.4659292        81.18713
4.7918                 0.4620362        80.44627        0.2260928       -40.86426        0.2260927       -40.86429        0.4620362         80.4463
4.7932                 0.4581145        79.69699        0.2237122        -41.7253         0.223712       -41.72533        0.4581145        79.69702
4.7946                 0.4541543        78.93837        0.2212924       -42.61646        0.2212923       -42.61649        0.4541543         78.9384
4.796                  0.4501448        78.16961        0.2188232       -43.53697        0.2188231         -43.537        0.4501449        78.16965
4.7974                 0.4460748         77.3901        0.2162958       -44.48568        0.2162956        -44.4857        0.4460748        77.39014
4.7988                 0.4419324        76.59944        0.2137028       -45.46114        0.2137027       -45.46116        0.4419325        76.59948
4.8002                 0.4377059        75.79737        0.2110388       -46.46158        0.2110387        -46.4616        0.4377059        75.79741
4.8016                 0.4333836        74.98388        0.2083001       -47.48503           0.2083       -47.48505        0.4333836        74.98394
4.803                  0.4289539        74.15918        0.2054849       -48.52938        0.2054848       -48.52938         0.428954        74.15922
4.8044                 0.4244064        73.32364        0.2025934       -49.59235        0.2025933       -49.59236        0.4244064        73.32368
4.8058                 0.4197309        72.47787        0.1996276        -50.6717        0.1996274       -50.67172         0.419731         72.4779
4.8072                 0.4149186        71.62268        0.1965912       -51.76521         0.196591       -51.76522        0.4149187        71.62272
4.8086                 0.4099617        70.75909        0.1934898       -52.87076        0.1934897       -52.87076        0.4099618        70.75913
4.81                    0.404854        69.88828        0.1903307       -53.98642        0.1903305       -53.98643        0.4048541        69.88834
4.8114                 0.3995904        69.01166        0.1871222       -55.11058        0.1871221       -55.11058        0.3995906        69.01168
4.8128                 0.3941679        68.13067        0.1838742       -56.24194         0.183874       -56.24195        0.3941681        68.13071
4.8142                 0.3885848        67.24702        0.1805972        -57.3797        0.1805971        -57.3797        0.3885849        67.24708
4.8156                 0.3828413         66.3625        0.1773027       -58.52354        0.1773026       -58.52354        0.3828415        66.36254
4.817                  0.3769392        65.47894        0.1740024       -59.67379        0.1740022       -59.67379        0.3769394        65.47897
4.8184                 0.3708823         64.5983         0.170708        -60.8315        0.1707079        -60.8315        0.3708824        64.59833
4.8198                 0.3646755        63.72255        0.1674314       -61.99848        0.1674312       -61.99848        0.3646757        63.72258
4.8212                 0.3583258        62.85373        0.1641834        -63.1774        0.1641833       -63.17739        0.3583259        62.85377
4.8226                 0.3518412        61.99384        0.1609745       -64.37182        0.1609744        -64.3718        0.3518414        61.99388
4.824                  0.3452314        61.14483        0.1578136       -65.58625        0.1578135       -65.58623        0.3452316        61.14487
4.8254                 0.3385069        60.30864        0.1547086       -66.82616        0.1547085       -66.82615         0.338507        60.30867
4.8268                 0.3316791        59.48707        0.1516655       -68.09799        0.1516654       -68.09797        0.3316792        59.48711
4.8282                 0.3247601        58.68186        0.1486886       -69.40911        0.1486885       -69.40909        0.3247602        58.68189
4.8296                 0.3177626        57.89451        0.1457803       -70.76778        0.1457802       -70.76775        0.3177627        57.89455
4.831                  0.3106992        57.12648         0.142941       -72.18308        0.1429409       -72.18307        0.3106993        57.12651
4.8324                 0.3035824        56.37895        0.1401694       -73.66487        0.1401693       -73.66486        0.3035826        56.37897
4.8338                 0.2964246        55.65289        0.1374621       -75.22361         0.137462        -75.2236        0.2964247        55.65292
4.8352                 0.2892372        54.94909        0.1348143       -76.87037        0.1348142       -76.87034        0.2892373        54.94911
4.8366                 0.2820308        54.26809        0.1322199       -78.61663        0.1322198        -78.6166        0.2820309        54.26811
4.838                  0.2748148        53.61018        0.1296717       -80.47426        0.1296716       -80.47423        0.2748149        53.61021
4.8394                 0.2675971        52.97547        0.1271622       -82.45547        0.1271621       -82.45542        0.2675972        52.97549
4.8408                 0.2603841         52.3638        0.1246835       -84.57266        0.1246834       -84.57263        0.2603841        52.36382
4.8422                 0.2531801         51.7749        0.1222285       -86.83848        0.1222284       -86.83846        0.2531802        51.77493
4.8436                 0.2459878        51.20836        0.1197908       -89.26583        0.1197908       -89.26578        0.2459878        51.20838
4.845                  0.2388076        50.66367        0.1173659       -91.86771        0.1173658       -91.86768        0.2388077        50.66369
4.8464                  0.231638        50.14038        0.1149511       -94.65746         0.114951        -94.6574         0.231638        50.14039
4.8478                 0.2244751        49.63813        0.1125467       -97.64852        0.1125467       -97.64849        0.2244752        49.63815
4.8492                 0.2173135         49.1568        0.1101564       -100.8546        0.1101563       -100.8545        0.2173135        49.15682
4.8506                 0.2101457        48.69664        0.1077875       -104.2894        0.1077874       -104.2893        0.2101456        48.69666
4.852                  0.2029624        48.25845        0.1054519       -107.9665        0.1054518       -107.9665        0.2029624        48.25848
4.8534                 0.1957534         47.8438        0.1031664       -111.8992        0.1031663       -111.8992        0.1957534        47.84383
4.8548                 0.1885071        47.45521        0.1009529       -116.0997        0.1009528       -116.0997        0.1885071        47.45524
4.8562                 0.1812116        47.09649       0.09883879       -120.5786       0.09883872       -120.5786        0.1812115        47.09653
4.8576                 0.1738545        46.77311       0.09685682       -125.3439       0.09685676       -125.3438        0.1738544        46.77314
4.859                  0.1664242        46.49254       0.09504486       -130.3995       0.09504481       -130.3994        0.1664241        46.49257
4.8604                 0.1589098        46.26493       0.09344518       -135.7441       0.09344513        -135.744        0.1589097        46.26496
4.8618                 0.1513023        46.10373       0.09210331       -141.3693       0.09210327       -141.3693        0.1513022        46.10377
4.8632                 0.1435951        46.02668       0.09106626       -147.2583       0.09106623       -147.2583         0.143595        46.02672
4.8646                 0.1357851        46.05701       0.09038042       -153.3848       0.09038038       -153.3848         0.135785        46.05706
4.866                  0.1278741        46.22523       0.09008876       -159.7125       0.09008872       -159.7125         0.127874        46.22529
4.8674                 0.1198701        46.57144       0.09022814       -166.1961       0.09022809       -166.1961          0.11987         46.5715
4.8688                 0.1117894        47.14867       0.09082652       -172.7833       0.09082647       -172.7833        0.1117893        47.14874
4.8702                 0.1036599         48.0275       0.09190085       -179.4177       0.09190082       -179.4177        0.1036598        48.02758
4.8716                0.09552513        49.30257       0.09345575        173.9571        0.0934557        173.9572       0.09552503        49.30266