! TOUCHSTONE file generated by CST MICROWAVE STUDIO
! Date and time: Sat Nov 30 13:10:58 2024
! Project name: test_tuning.cst
! Parameters = {airCoaxOuterDiameter=3; chamferAngle=45; chamferWidth=24; connectorLength=10; drillingHoleDiameter=4.1; feedLength=60; flareDiameter=130; flareLength=70; gratingDistance=0; gratingGap=1.90274; outletLength=30; polarizerLength=134; probe1Diameter=1.3; probe1Distance=11.5; probe1Length=12; probe2Diameter=1.3; probe2Distance=0; probe2Length=12; probeLength=12; smaInnerDiameter=1.3; smaOuterDiameter=4.1; transitionCoefficient=1.33; waveguideFeedLength=30; waveguideSide=50; waveguideThickness=3; wireCount=25; wireDiameter=1.17699}
! Header version: 2024
! Port assignment regex: !\s*Touchstone port\s*([0-9]+)\s*=\s*(CST MWS port|CST DES external port|CST DES block port)\s*(.+)\s* \(\"(.*)\"\)(\s*mode\s*([0-9]+))?.*
! Touchstone port assignment:
! Touchstone port 1 = CST MWS port 1 ("Input1")
! Touchstone port 2 = CST MWS port 2 ("Input2")
# GHz S MA R 50
4.6                   0.06053179       -110.4894        0.6223707        79.17412        0.6223706        79.17409       0.06053313       -110.4908
4.6014                0.06652218       -116.2433        0.6262173        78.25835        0.6262171        78.25831       0.06652363       -116.2447
4.6028                0.07312892       -121.2285        0.6301043        77.32085        0.6301039        77.32083       0.07313044       -121.2298
4.6042                0.08027001         -125.58        0.6340125        76.36021        0.6340121        76.36019       0.08027161       -125.5812
4.6056                 0.0878835       -129.4182        0.6379201        75.37528        0.6379195        75.37525       0.08788513       -129.4193
4.607                 0.09592236       -132.8444         0.641803        74.36514        0.6418024        74.36511         0.095924       -132.8455
4.6084                 0.1043503       -135.9413        0.6456351        73.32913        0.6456345        73.32913         0.104352       -135.9423
4.6098                 0.1131385       -138.7752         0.649389        72.26693        0.6493882        72.26692        0.1131401       -138.7762
4.6112                 0.1222629       -141.3994         0.653036        71.17845        0.6530352        71.17845        0.1222644       -141.4003
4.6126                 0.1317022       -143.8562        0.6565472        70.06391        0.6565464        70.06391        0.1317038        -143.857
4.614                  0.1414372       -146.1792        0.6598935        68.92378        0.6598926        68.92379        0.1414387         -146.18
4.6154                  0.151449       -148.3952        0.6630462        67.75882        0.6630454        67.75883        0.1514505        -148.396
4.6168                 0.1617191       -150.5258        0.6659775           66.57        0.6659767        66.57002        0.1617205       -150.5266
4.6182                 0.1722287       -152.5881        0.6686612        65.35853        0.6686602        65.35857        0.1722299       -152.5887
4.6196                 0.1829582       -154.5955         0.671072        64.12584        0.6710711        64.12588        0.1829594       -154.5962
4.621                  0.1938876       -156.5591        0.6731874         62.8735        0.6731866        62.87354        0.1938887       -156.5597
4.6224                 0.2049962       -158.4873        0.6749869        61.60322        0.6749861        61.60327        0.2049973       -158.4879
4.6238                 0.2162627       -160.3871        0.6764524         60.3169        0.6764516        60.31695        0.2162637       -160.3877
4.6252                  0.227665       -162.2638        0.6775689        59.01648        0.6775682        59.01653        0.2276659       -162.2643
4.6266                 0.2391806       -164.1215        0.6783242        57.70399        0.6783235        57.70406        0.2391815        -164.122
4.628                   0.250787       -165.9635         0.678709        56.38153        0.6787083         56.3816        0.2507878       -165.9639
4.6294                 0.2624609       -167.7921        0.6787173        55.05124        0.6787167         55.0513        0.2624617       -167.7925
4.6308                 0.2741795       -169.6092        0.6783461        53.71521        0.6783456        53.71528        0.2741803       -169.6095
4.6322                 0.2859197       -171.4161        0.6775956        52.37557        0.6775951        52.37564        0.2859204       -171.4164
4.6336                 0.2976589       -173.2136        0.6764689         51.0344        0.6764684        51.03446        0.2976595       -173.2138
4.635                  0.3093746       -175.0022        0.6749719        49.69371        0.6749715        49.69378        0.3093753       -175.0025
4.6364                 0.3210452       -176.7823        0.6731137        48.35545        0.6731134        48.35552        0.3210458       -176.7826
4.6378                 0.3326493        -178.554        0.6709055        47.02149        0.6709052        47.02155        0.3326501       -178.5542
4.6392                 0.3441668         179.683        0.6683611        45.69355        0.6683609        45.69362        0.3441674        179.6828
4.6406                 0.3555778        177.9287        0.6654962        44.37328        0.6654961        44.37334        0.3555785        177.9285
4.642                  0.3668639        176.1835        0.6623288        43.06216        0.6623287        43.06222        0.3668646        176.1833
4.6434                 0.3780074        174.4478        0.6588779        41.76152        0.6588779        41.76157        0.3780082        174.4477
4.6448                 0.3889918         172.722        0.6551642        40.47254        0.6551642         40.4726        0.3889927        172.7219
4.6462                 0.3998018        171.0065         0.651209        39.19621        0.6512091        39.19626        0.3998026        171.0064
4.6476                 0.4104231        169.3018        0.6470345        37.93335        0.6470345         37.9334         0.410424        169.3018
4.649                  0.4208429        167.6085        0.6426628         36.6846        0.6426629        36.68464        0.4208437        167.6084
4.6504                 0.4310491        165.9268        0.6381165        35.45037        0.6381165        35.45042          0.43105        165.9267
4.6518                 0.4410312        164.2572        0.6334172        34.23093        0.6334173        34.23097        0.4410321        164.2572
4.6532                 0.4507797        162.6002        0.6285863        33.02631        0.6285864        33.02634        0.4507808        162.6002
4.6546                 0.4602866        160.9562         0.623644        31.83636        0.6236442        31.83639        0.4602876        160.9561
4.656                  0.4695444        159.3253        0.6186093        30.66077        0.6186093        30.66079        0.4695455        159.3252
4.6574                 0.4785472         157.708        0.6134997        29.49903        0.6134996        29.49906        0.4785483         157.708
4.6588                 0.4872897        156.1045        0.6083307         28.3505        0.6083307        28.35052        0.4872908        156.1044
4.6602                  0.495768         154.515        0.6031165        27.21438        0.6031164         27.2144        0.4957691        154.5149
4.6616                 0.5039786        152.9396        0.5978685        26.08975        0.5978685        26.08977        0.5039797        152.9396
4.663                   0.511919        151.3786        0.5925968        24.97561        0.5925967        24.97562        0.5119202        151.3786
4.6644                 0.5195874        149.8319        0.5873087        23.87087        0.5873085        23.87089        0.5195886        149.8319
4.6658                 0.5269827        148.2997        0.5820094        22.77441        0.5820092        22.77442        0.5269839        148.2997
4.6672                 0.5341042         146.782        0.5767021        21.68508        0.5767019        21.68509        0.5341052        146.7819
4.6686                 0.5409515        145.2786        0.5713881        20.60176        0.5713879        20.60177        0.5409525        145.2786
4.67                   0.5475251        143.7897        0.5660664        19.52336        0.5660661        19.52338        0.5475261        143.7896
4.6714                 0.5538253        142.3151        0.5607345        18.44887        0.5607342        18.44888        0.5538264         142.315
4.6728                 0.5598529        140.8547        0.5553884        17.37736        0.5553881        17.37738        0.5598539        140.8547
4.6742                 0.5656091        139.4086        0.5500226        16.30805        0.5500223        16.30807        0.5656099        139.4086
4.6756                 0.5710946        137.9765        0.5446309        15.24028        0.5446305         15.2403        0.5710954        137.9765
4.677                   0.576311        136.5584         0.539206        14.17356        0.5392057        14.17358        0.5763118        136.5584
4.6784                 0.5812595        135.1542        0.5337405        13.10757        0.5337401         13.1076        0.5812602        135.1542
4.6798                 0.5859416        133.7639        0.5282264        12.04221         0.528226        12.04224        0.5859422        133.7639
4.6812                 0.5903587        132.3873        0.5226564        10.97752         0.522656        10.97755        0.5903594        132.3873
4.6826                 0.5945126        131.0245        0.5170232        9.913781        0.5170228         9.91382        0.5945132        131.0245
4.684                   0.598405        129.6754        0.5113205        8.851463        0.5113201        8.851504        0.5984056        129.6754
4.6854                 0.6020379          128.34        0.5055426        7.791223        0.5055421        7.791267        0.6020383          128.34
4.6868                 0.6054133        127.0184        0.4996852        6.733901        0.4996848        6.733947        0.6054137        127.0184
4.6882                 0.6085335        125.7107        0.4937456        5.680511        0.4937452         5.68056         0.608534        125.7107
4.6896                 0.6114015         124.417        0.4877222        4.632221        0.4877218        4.632273        0.6114019         124.417
4.691                  0.6140201        123.1373        0.4816153        3.590336        0.4816149         3.59039        0.6140206        123.1374
4.6924                 0.6163927         121.872        0.4754269        2.556275        0.4754266        2.556332        0.6163932         121.872
4.6938                 0.6185237        120.6211        0.4691609        1.531545        0.4691606        1.531603        0.6185241        120.6212
4.6952                  0.620417         119.385        0.4628228       0.5177127        0.4628225       0.5177723        0.6204176        119.3851
4.6966                 0.6220782        118.1638        0.4564201      -0.4836201        0.4564198      -0.4835596        0.6220788        118.1639
4.698                  0.6235127        116.9578        0.4499618       -1.470856        0.4499615       -1.470794        0.6235133        116.9579
4.6994                 0.6247272        115.7674        0.4434586       -2.442429        0.4434584       -2.442366        0.6247279        115.7675
4.7008                 0.6257287        114.5927        0.4369228       -3.396844        0.4369225        -3.39678        0.6257294        114.5928
4.7022                 0.6265253         113.434        0.4303675       -4.332711        0.4303674       -4.332647        0.6265261        113.4341
4.7036                 0.6271254        112.2916        0.4238074       -5.248788        0.4238072       -5.248734        0.6271263        112.2918
4.705                  0.6275386        111.1658        0.4172576          -6.144        0.4172574       -6.143917        0.6275395        111.1659
4.7064                 0.6277748        110.0566        0.4107338       -7.017474        0.4107336       -7.017419        0.6277756        110.0567
4.7078                 0.6278447        108.9643        0.4042519       -7.868625        0.4042517       -7.868572        0.6278458        108.9644
4.7092                 0.6277598        107.8889        0.3978278       -8.697084        0.3978277       -8.697003        0.6277609         107.889
4.7106                 0.6275316        106.8304        0.3914768       -9.502843        0.3914767        -9.50278        0.6275329        106.8306
4.712                  0.6271725        105.7889        0.3852137       -10.28616        0.3852135        -10.2861        0.6271739        105.7891
4.7134                 0.6266949        104.7642        0.3790519       -11.04765        0.3790519       -11.04759        0.6266964        104.7643
4.7148                 0.6261114         103.756        0.3730039       -11.78825        0.3730038       -11.78819         0.626113        103.7562
4.7162                 0.6254345        102.7641        0.3670801       -12.50924          0.36708       -12.50918        0.6254363        102.7642
4.7176                 0.6246767         101.788        0.3612891       -13.21221         0.361289       -13.21214        0.6246785        101.7881
4.719                  0.6238499        100.8272        0.3556377       -13.89902        0.3556376       -13.89895        0.6238518        100.8274
4.7204                 0.6229657        99.88122        0.3501301       -14.57181          0.35013       -14.57174        0.6229677        99.88135
4.7218                 0.6220351        98.94919        0.3447683       -15.23291        0.3447682       -15.23284        0.6220372        98.94932
4.7232                 0.6210681        98.03039        0.3395519       -15.88483        0.3395518       -15.88476        0.6210702         98.0305
4.7246                 0.6200736        97.12389        0.3344781       -16.53014         0.334478       -16.53007        0.6200758          97.124
4.726                  0.6190598        96.22876        0.3295417       -17.17147        0.3295416       -17.17139        0.6190621        96.22889
4.7274                 0.6180332        95.34399        0.3247356       -17.81139        0.3247355       -17.81132        0.6180357        95.34409
4.7288                 0.6169993        94.46845        0.3200505       -18.45238        0.3200504        -18.4523        0.6170017        94.46856
4.7302                 0.6159619        93.60111        0.3154755       -19.09673        0.3154754       -19.09665        0.6159645        93.60118
4.7316                 0.6149236        92.74078        0.3109984        -19.7465        0.3109983       -19.74642        0.6149262        92.74085
4.733                  0.6138854        91.88636        0.3066058       -20.40346        0.3066058       -20.40337         0.613888        91.88643
4.7344                 0.6128468        91.03676        0.3022837       -21.06901        0.3022837       -21.06892        0.6128495        91.03681
4.7358                  0.611806        90.19092        0.2980177       -21.74421        0.2980176       -21.74412        0.6118087        90.19097
4.7372                 0.6107597        89.34777        0.2937934       -22.42968        0.2937933       -22.42959        0.6107624        89.34784
4.7386                 0.6097035        88.50646        0.2895968       -23.12563        0.2895968       -23.12554        0.6097063        88.50653
4.74                   0.6086318        87.66613        0.2854148       -23.83183        0.2854148       -23.83173        0.6086346        87.66616
4.7414                 0.6075382        86.82602        0.2812351       -24.54759        0.2812351        -24.5475        0.6075409        86.82604
4.7428                 0.6064152         85.9855         0.277047       -25.27185        0.2770471       -25.27175         0.606418         85.9855
4.7442                 0.6052552        85.14405        0.2728413       -26.00311        0.2728414       -26.00302        0.6052579        85.14404
4.7456                 0.6040496        84.30136        0.2686106       -26.73952        0.2686107       -26.73942        0.6040523        84.30133
4.747                  0.6027903        83.45713        0.2643495       -27.47886        0.2643495       -27.47877        0.6027929        83.45709
4.7484                 0.6014686        82.61129        0.2600546       -28.21867        0.2600547       -28.21858        0.6014712        82.61126
4.7498                 0.6000767        81.76387        0.2557249       -28.95621        0.2557251       -28.95611        0.6000791        81.76383
4.7512                 0.5986065        80.91502        0.2513615       -29.68854        0.2513617       -29.68845        0.5986089        80.91498
4.7526                 0.5970511        80.06508        0.2469676       -30.41262        0.2469678       -30.41254        0.5970535        80.06499
4.754                  0.5954045        79.21438        0.2425485       -31.12534        0.2425487       -31.12526        0.5954068        79.21432
4.7554                 0.5936614        78.36349        0.2381117       -31.82358        0.2381119       -31.82349        0.5936636         78.3634
4.7568                 0.5918176        77.51293        0.2336663        -32.5043        0.2336666       -32.50422        0.5918198        77.51284
4.7582                 0.5898704        76.66342        0.2292232       -33.16466        0.2292234       -33.16459        0.5898725        76.66333
4.7596                 0.5878184        75.81565        0.2247946       -33.80203        0.2247948       -33.80197        0.5878204        75.81556
4.761                  0.5856614        74.97041        0.2203938       -34.41413        0.2203941       -34.41407        0.5856633        74.97032
4.7624                  0.583401        74.12846        0.2160349        -34.9991        0.2160352       -34.99905        0.5834028        74.12837
4.7638                 0.5810397        73.29057        0.2117326       -35.55559        0.2117329       -35.55555        0.5810414        73.29045
4.7652                 0.5785819        72.45747        0.2075014       -36.08286        0.2075017       -36.08283        0.5785835        72.45733
4.7666                 0.5760331        71.62988        0.2033557       -36.58083        0.2033559        -36.5808        0.5760346        71.62976
4.768                  0.5733999        70.80842         0.199309       -37.05016        0.1993092       -37.05013        0.5734013        70.80828
4.7694                 0.5706902        69.99365        0.1953737       -37.49229         0.195374       -37.49227        0.5706914        69.99353
4.7708                 0.5679127        69.18604         0.191561       -37.90948        0.1915612       -37.90948        0.5679138         69.1859
4.7722                 0.5650769        68.38588        0.1878797       -38.30482        0.1878799       -38.30481        0.5650779        68.38577
4.7736                 0.5621928        67.59341        0.1843369       -38.68212        0.1843371       -38.68212        0.5621938         67.5933
4.775                  0.5592706        66.80865        0.1809369       -39.04598         0.180937       -39.04598        0.5592715        66.80853
4.7764                 0.5563209        66.03147        0.1776815       -39.40159        0.1776817        -39.4016        0.5563217        66.03133
4.7778                 0.5533537        65.26165        0.1745699       -39.75466          0.17457       -39.75467        0.5533544        65.26152
4.7792                 0.5503789         64.4987        0.1715981       -40.11126        0.1715981       -40.11126        0.5503796        64.49857
4.7806                 0.5474057        63.74204        0.1687597       -40.47761        0.1687597       -40.47762        0.5474062        63.74191
4.782                  0.5444422        62.99092        0.1660456       -40.85998        0.1660456       -40.85999        0.5444426        62.99079
4.7834                 0.5414955        62.24443        0.1634444       -41.26445        0.1634445       -41.26447        0.5414958        62.24431
4.7848                 0.5385712        61.50152        0.1609428       -41.69675        0.1609428       -41.69677        0.5385715        61.50141
4.7862                  0.535674        60.76106        0.1585255        -42.1621        0.1585255       -42.16212        0.5356743        60.76095
4.7876                 0.5328064        60.02178        0.1561763       -42.66507        0.1561763       -42.66508        0.5328066        60.02167
4.789                  0.5299694        59.28236        0.1538781       -43.20948        0.1538781       -43.20949        0.5299694        59.28226
4.7904                 0.5271621        58.54143        0.1516135       -43.79832        0.1516135       -43.79832        0.5271621        58.54134
4.7918                  0.524382        57.79762        0.1493653        -44.4337        0.1493652        -44.4337         0.524382        57.79754
4.7932                 0.5216246        57.04958        0.1471167       -45.11683        0.1471166       -45.11683        0.5216245        57.04949
4.7946                  0.518884        56.29593         0.144852       -45.84806        0.1448519       -45.84805        0.5188839        56.29585
4.796                  0.5161524        55.53546        0.1425568       -46.62685        0.1425567       -46.62684        0.5161523        55.53538
4.7974                 0.5134207        54.76699        0.1402184        -47.4519        0.1402183       -47.45188        0.5134205        54.76692
4.7988                 0.5106784         53.9895        0.1378257       -48.32113        0.1378256       -48.32112        0.5106782        53.98943
4.8002                  0.507914         53.2021          0.13537       -49.23187        0.1353699       -49.23184        0.5079138        53.20204
4.8016                 0.5051152        52.40406        0.1328447        -50.1808        0.1328446       -50.18079         0.505115        52.40401
4.803                   0.502269        51.59487        0.1302455       -51.16419        0.1302454       -51.16417        0.5022688        51.59482
4.8044                 0.4993622        50.77415        0.1275704       -52.17788        0.1275703       -52.17786        0.4993619        50.77409
4.8058                 0.4963813        49.94176        0.1248199       -53.21742        0.1248197       -53.21739         0.496381        49.94171
4.8072                  0.493313        49.09777        0.1219966       -54.27817        0.1219965       -54.27814        0.4933127        49.09772
4.8086                 0.4901449        48.24244        0.1191056       -55.35546        0.1191055       -55.35542        0.4901446         48.2424
4.81                   0.4868649        47.37622        0.1161538       -56.44462        0.1161537       -56.44458        0.4868646        47.37618
4.8114                 0.4834619        46.49978        0.1131502       -57.54119        0.1131501       -57.54113        0.4834616        46.49974
4.8128                 0.4799261        45.61395        0.1101054         -58.641        0.1101053       -58.64094        0.4799258        45.61391
4.8142                  0.476249        44.71972        0.1070315        -59.7404        0.1070314       -59.74035        0.4762486        44.71969
4.8156                 0.4724236        43.81827        0.1039418       -60.83644        0.1039417       -60.83639        0.4724232        43.81823
4.817                  0.4684447        42.91085        0.1008505       -61.92703        0.1008503       -61.92699        0.4684443        42.91082
4.8184                 0.4643085        41.99888       0.09777218       -63.01123       0.09777203       -63.01117        0.4643081        41.99885
4.8198                 0.4600135        41.08383       0.09472186       -64.08944       0.09472172       -64.08939        0.4600131         41.0838
4.8212                 0.4555597        40.16723        0.0917142       -65.16376       0.09171404       -65.16371        0.4555592        40.16721
4.8226                  0.450949        39.25067       0.08876332       -66.23819       0.08876316       -66.23811        0.4509485        39.25065
4.824                  0.4461852        38.33573       0.08588231        -67.3189       0.08588213       -67.31883        0.4461846         38.3357
4.8254                 0.4412735        37.42396       0.08308291       -68.41456       0.08308273       -68.41449         0.441273        37.42393
4.8268                 0.4362212        36.51687       0.08037513       -69.53645       0.08037494       -69.53637        0.4362206        36.51685
4.8282                 0.4310365         35.6159       0.07776702        -70.6987       0.07776681        -70.6986        0.4310359        35.61589
4.8296                 0.4257292        34.72238       0.07526438        -71.9183       0.07526417       -71.91819        0.4257285        34.72237
4.831                  0.4203098        33.83751       0.07287075       -73.21514       0.07287054       -73.21503         0.420309         33.8375
4.8324                 0.4147898         32.9623       0.07058742       -74.61193       0.07058721       -74.61181        0.4147891         32.9623
4.8338                 0.4091813        32.09763       0.06841365       -76.13398       0.06841344       -76.13383        0.4091805        32.09762
4.8352                 0.4034963        31.24411       0.06634702       -77.80889        0.0663468       -77.80873        0.4034954        31.24412
4.8366                  0.397747        30.40217         0.064384       -79.66637       0.06438379       -79.66619        0.3977462        30.40219
4.838                  0.3919452          29.572        0.0625207       -81.73778       0.06252049       -81.73759        0.3919444        29.57202
4.8394                 0.3861021        28.75351        0.0607537       -84.05575       0.06075349       -84.05554        0.3861012        28.75354
4.8408                 0.3802278        27.94637       0.05908111       -86.65377        0.0590809       -86.65354        0.3802268        27.94641
4.8422                 0.3743311           27.15       0.05750368        -89.5656       0.05750347       -89.56536        0.3743301        27.15005
4.8436                 0.3684196        26.36357         0.056026       -92.82457       0.05602579       -92.82432        0.3684186        26.36363
4.845                   0.362499        25.58603       0.05465764       -96.46252       0.05465742       -96.46226         0.362498         25.5861
4.8464                  0.356573        24.81611       0.05341424       -100.5082       0.05341402       -100.5079         0.356572        24.81619
4.8478                 0.3506434        24.05238       0.05231839        -104.985       0.05231817       -104.9848        0.3506424        24.05247
4.8492                 0.3447096        23.29327        0.0514001       -109.9081       0.05139987       -109.9079        0.3447086        23.29338
4.8506                 0.3387689        22.53713       0.05069665       -115.2804       0.05069642       -115.2801        0.3387679        22.53725
4.852                  0.3328162        21.78228        0.0502516       -121.0882       0.05025137       -121.0879        0.3328153        21.78242
4.8534                 0.3268443        21.02707       0.05011281       -127.2978       0.05011258       -127.2975        0.3268434        21.02722
4.8548                 0.3208439        20.26995       0.05032926       -133.8531         0.050329       -133.8528         0.320843        20.27013
4.8562                 0.3148035        19.50955       0.05094707       -140.6764       0.05094682       -140.6762        0.3148027        19.50973
4.8576                 0.3087101        18.74472       0.05200531       -147.6736       0.05200506       -147.6733        0.3087093        18.74491
4.859                  0.3025493        17.97465       0.05353221        -154.742       0.05353194       -154.7418        0.3025485        17.97486
4.8604                 0.2963052        17.19893       0.05554263       -161.7814       0.05554237       -161.7812        0.2963045        17.19914
4.8618                 0.2899614        16.41762       0.05803747       -168.7033       0.05803721       -168.7031        0.2899607        16.41786
4.8632                 0.2835009         15.6314        0.0610045       -175.4381       0.06100425        -175.438        0.2835004        15.63164
4.8646                 0.2769069        14.84155        0.0644206        178.0622       0.06442035        178.0624        0.2769064         14.8418
4.866                  0.2701628        14.05014       0.06825441        171.8251       0.06825416        171.8252        0.2701624        14.05041
4.8674                  0.263253         13.2601       0.07246904        165.8602        0.0724688        165.8603        0.2632526        13.26038
4.8688                  0.256163        12.47534        0.0770243         160.164       0.07702408        160.1641        0.2561627        12.47562
4.8702                 0.2488802        11.70087       0.08187846        154.7241       0.08187825        154.7242          0.24888        11.70116
4.8716                 0.2413944        10.94299       0.08698936        149.5228       0.08698914        149.5229        0.2413943        10.94328