! TOUCHSTONE file generated by CST MICROWAVE STUDIO
! Date and time: Sat Nov 30 13:10:57 2024
! Project name: test_tuning.cst
! Parameters = {airCoaxOuterDiameter=3; chamferAngle=45; chamferWidth=24; connectorLength=10; drillingHoleDiameter=4.1; feedLength=60; flareDiameter=130; flareLength=70; gratingDistance=0; gratingGap=1.90274; outletLength=30; polarizerLength=134; probe1Diameter=1.3; probe1Distance=10.5; probe1Length=12; probe2Diameter=1.3; probe2Distance=0; probe2Length=12; probeLength=12; smaInnerDiameter=1.3; smaOuterDiameter=4.1; transitionCoefficient=1.33; waveguideFeedLength=30; waveguideSide=50; waveguideThickness=3; wireCount=25; wireDiameter=1.17699}
! Header version: 2024
! Port assignment regex: !\s*Touchstone port\s*([0-9]+)\s*=\s*(CST MWS port|CST DES external port|CST DES block port)\s*(.+)\s* \(\"(.*)\"\)(\s*mode\s*([0-9]+))?.*
! Touchstone port assignment:
! Touchstone port 1 = CST MWS port 1 ("Input1")
! Touchstone port 2 = CST MWS port 2 ("Input2")
# GHz S MA R 50
4.6                   0.08472263       -17.11487        0.6196454        86.09162        0.6196458        86.09162       0.08472185       -17.11495
4.6014                0.07884399       -22.52588        0.6245299        85.15613        0.6245303        85.15613       0.07884318       -22.52599
4.6028                0.07343344       -28.86329        0.6295113        84.19585        0.6295116        84.19585       0.07343258       -28.86343
4.6042                0.06869393       -36.26622        0.6345702        83.20886        0.6345706        83.20886       0.06869306       -36.26643
4.6056                0.06488427       -44.81909        0.6396842        82.19345        0.6396845        82.19345       0.06488341       -44.81937
4.607                 0.06230523         -54.479        0.6448272        81.14821        0.6448275        81.14821       0.06230438       -54.47938
4.6084                0.06125733        -65.0013        0.6499703        80.07202        0.6499706        80.07202       0.06125651       -65.00177
4.6098                0.06197225       -75.92658        0.6550824        78.96412        0.6550827        78.96411       0.06197149       -75.92713
4.6112                0.06454749       -86.68458        0.6601304        77.82404        0.6601307        77.82404       0.06454681       -86.68519
4.6126                 0.0689265       -96.77372        0.6650798        76.65166          0.66508        76.65165       0.06892591       -96.77435
4.614                 0.07493621       -105.8921        0.6698953        75.44717        0.6698956        75.44717       0.07493569       -105.8927
4.6154                0.08235071       -113.9508        0.6745418        74.21108         0.674542        74.21108       0.08235025       -113.9513
4.6168                 0.0909437        -121.007         0.678984        72.94419        0.6789842        72.94418        0.0909433       -121.0075
4.6182                 0.1005158       -127.1879        0.6831875        71.64757        0.6831878        71.64755        0.1005154       -127.1883
4.6196                 0.1109019       -132.6371        0.6871194         70.3225        0.6871197         70.3225        0.1109016       -132.6375
4.621                  0.1219686       -137.4887        0.6907485        68.97052        0.6907488        68.97051        0.1219683       -137.4891
4.6224                 0.1336081       -141.8569        0.6940455        67.59334        0.6940458        67.59333        0.1336079       -141.8572
4.6238                 0.1457321        -145.835        0.6969838        66.19282        0.6969841         66.1928        0.1457319       -145.8352
4.6252                 0.1582664       -149.4973        0.6995395        64.77095        0.6995396        64.77095        0.1582662       -149.4975
4.6266                 0.1711475       -152.9029        0.7016913        63.32986        0.7016916        63.32985        0.1711474       -152.9031
4.628                  0.1843193       -156.0982        0.7034218         61.8717         0.703422         61.8717        0.1843192       -156.0984
4.6294                 0.1977313         -159.12        0.7047164        60.39873        0.7047165        60.39873        0.1977312       -159.1201
4.6308                 0.2113372       -161.9971        0.7055637        58.91322        0.7055638        58.91321        0.2113372       -161.9973
4.6322                  0.225094       -164.7528        0.7059563        57.41743        0.7059564        57.41742        0.2250939       -164.7529
4.6336                  0.238961       -167.4053        0.7058897        55.91364        0.7058898        55.91363         0.238961       -167.4054
4.635                     0.2529       -169.9694        0.7053628        54.40408        0.7053631        54.40407           0.2529       -169.9695
4.6364                 0.2668744       -172.4568        0.7043781        52.89094        0.7043783        52.89094        0.2668744       -172.4569
4.6378                 0.2808493       -174.8773        0.7029407        51.37637        0.7029408        51.37637        0.2808494       -174.8773
4.6392                 0.2947916       -177.2383        0.7010589        49.86241         0.701059        49.86241        0.2947918       -177.2384
4.6406                 0.3086697       -179.5464        0.6987437        48.35104        0.6987439        48.35102        0.3086699       -179.5464
4.642                  0.3224533        178.1936        0.6960086        46.84409        0.6960088        46.84408        0.3224536        178.1935
4.6434                 0.3361141        175.9773        0.6928692        45.34335        0.6928694        45.34334        0.3361144        175.9772
4.6448                 0.3496251        173.8014        0.6893435        43.85044        0.6893435        43.85043        0.3496254        173.8013
4.6462                 0.3629611        171.6631        0.6854506        42.36685        0.6854507        42.36684        0.3629614         171.663
4.6476                 0.3760984        169.5601        0.6812117        40.89394        0.6812118        40.89393        0.3760988        169.5601
4.649                  0.3890153        167.4906        0.6766485        39.43293        0.6766486        39.43292        0.3890157        167.4906
4.6504                 0.4016915         165.453        0.6717839        37.98487         0.671784        37.98486        0.4016919         165.453
4.6518                 0.4141084        163.4461        0.6666414        36.55066        0.6666415        36.55065        0.4141089        163.4461
4.6532                 0.4262497        161.4688        0.6612443        35.13105        0.6612443        35.13104        0.4262502        161.4688
4.6546                 0.4381001        159.5203        0.6556162        33.72661        0.6556162         33.7266        0.4381006        159.5203
4.656                  0.4496466        157.5998        0.6497799        32.33777          0.64978        32.33775        0.4496471        157.5998
4.6574                 0.4608775        155.7067        0.6437582        30.96477        0.6437582        30.96476         0.460878        155.7067
4.6588                 0.4717832        153.8405        0.6375725        29.60773        0.6375725        29.60772        0.4717836        153.8405
4.6602                 0.4823551        152.0008        0.6312432         28.2666        0.6312431        28.26659        0.4823556        152.0007
4.6616                 0.4925867        150.1871        0.6247894        26.94119        0.6247893        26.94118        0.4925872         150.187
4.663                  0.5024728        148.3991        0.6182286         25.6312        0.6182285        25.63119        0.5024733         148.399
4.6644                 0.5120094        146.6364         0.611577        24.33619         0.611577        24.33618        0.5120099        146.6364
4.6658                 0.5211941        144.8988        0.6048487        23.05565        0.6048487        23.05564        0.5211945        144.8988
4.6672                 0.5300254        143.1859        0.5980561        21.78896        0.5980561        21.78895        0.5300259        143.1859
4.6686                 0.5385034        141.4975        0.5912098        20.53545        0.5912098        20.53545        0.5385038        141.4974
4.67                   0.5466286        139.8331        0.5843185        19.29444        0.5843184        19.29444         0.546629        139.8331
4.6714                 0.5544029        138.1925        0.5773892        18.06518         0.577389        18.06518        0.5544033        138.1925
4.6728                 0.5618288        136.5755        0.5704267        16.84697        0.5704266        16.84698        0.5618291        136.5755
4.6742                 0.5689093        134.9816        0.5634351        15.63912         0.563435        15.63912        0.5689095        134.9815
4.6756                 0.5756483        133.4105        0.5564163        14.44099        0.5564162        14.44099        0.5756485        133.4105
4.677                  0.5820501         131.862        0.5493712        13.25201        0.5493711        13.25202        0.5820502        131.8619
4.6784                 0.5881192        130.3356        0.5422996        12.07173        0.5422995        12.07174        0.5881195        130.3356
4.6798                 0.5938609         128.831        0.5352007        10.89979        0.5352005         10.8998        0.5938611         128.831
4.6812                 0.5992802         127.348        0.5280725        9.735963        0.5280724        9.735972        0.5992804         127.348
4.6826                 0.6043828        125.8862        0.5209134        8.580166        0.5209133        8.580177        0.6043829        125.8862
4.684                  0.6091741        124.4453        0.5137212        7.432474        0.5137211        7.432486        0.6091742        124.4453
4.6854                 0.6136599        123.0249        0.5064938        6.293119        0.5064937        6.293132        0.6136601        123.0249
4.6868                 0.6178463        121.6249          0.49923        5.162496        0.4992299        5.162511        0.6178465        121.6249
4.6882                 0.6217389         120.245        0.4919286        4.041168        0.4919285        4.041184        0.6217392         120.245
4.6896                 0.6253441        118.8849        0.4845895        2.929855        0.4845894        2.929872        0.6253442        118.8849
4.691                  0.6286678        117.5444        0.4772136        1.829429        0.4772135        1.829447        0.6286679        117.5444
4.6924                 0.6317163        116.2234        0.4698029       0.7409038        0.4698029       0.7409227        0.6317165        116.2235
4.6938                 0.6344961        114.9218        0.4623606      -0.3345805        0.4623605       -0.334561        0.6344964        114.9218
4.6952                 0.6370142        113.6393        0.4548913       -1.395779        0.4548912       -1.395759        0.6370144        113.6393
4.6966                 0.6392772         112.376         0.447401       -2.441362        0.4474009       -2.441341        0.6392774         112.376
4.698                  0.6412925        111.1317        0.4398971       -3.469942         0.439897       -3.469921        0.6412928        111.1317
4.6994                 0.6430678        109.9065        0.4323883       -4.480104        0.4323883       -4.480082        0.6430683        109.9065
4.7008                 0.6446112        108.7003        0.4248848       -5.470437        0.4248848       -5.470414        0.6446116        108.7003
4.7022                  0.645931        107.5131        0.4173979       -6.439569        0.4173979       -6.439541        0.6459316        107.5131
4.7036                 0.6470364        106.3449          0.40994       -7.386197        0.4099399       -7.386169        0.6470369        106.3449
4.705                  0.6479368        105.1958        0.4025242       -8.309142        0.4025242       -8.309115        0.6479374        105.1958
4.7064                 0.6486423        104.0657        0.3951647       -9.207404        0.3951646       -9.207349         0.648643        104.0657
4.7078                 0.6491634        102.9546        0.3878757       -10.08006        0.3878757       -10.08003         0.649164        102.9547
4.7092                 0.6495111        101.8626        0.3806719       -10.92659        0.3806719       -10.92657        0.6495119        101.8626
4.7106                 0.6496971        100.7895        0.3735678       -11.74667        0.3735678       -11.74664        0.6496978        100.7895
4.712                  0.6497331        99.73515        0.3665775       -12.54021        0.3665775       -12.54018        0.6497338        99.73515
4.7134                 0.6496315        98.69948        0.3597142       -13.30752        0.3597142        -13.3075        0.6496323        98.69948
4.7148                 0.6494049        97.68231        0.3529904       -14.04926        0.3529904       -14.04923        0.6494056        97.68231
4.7162                 0.6490658        96.68322        0.3464169       -14.76642        0.3464169       -14.76639        0.6490666        96.68322
4.7176                  0.648627        95.70193        0.3400034       -15.46036        0.3400034       -15.46034        0.6486277        95.70193
4.719                  0.6481012        94.73795        0.3337572       -16.13282        0.3337573       -16.13279        0.6481019        94.73792
4.7204                 0.6475007        93.79081         0.327684       -16.78584         0.327684       -16.78581        0.6475013        93.79075
4.7218                 0.6468372        92.85979        0.3217869       -17.42177        0.3217869       -17.42174        0.6468379        92.85976
4.7232                 0.6461224        91.94427        0.3160668       -18.04323        0.3160669        -18.0432         0.646123        91.94424
4.7246                 0.6453668        91.04344        0.3105224       -18.65303        0.3105224         -18.653        0.6453673        91.04341
4.726                  0.6445801        90.15642        0.3051496       -19.25411        0.3051496       -19.25408        0.6445806        90.15636
4.7274                 0.6437711        89.28225        0.2999424       -19.84948        0.2999423       -19.84945        0.6437716        89.28222
4.7288                 0.6429476        88.41999        0.2948921       -20.44213        0.2948921        -20.4421        0.6429479        88.41996
4.7302                 0.6421156        87.56855        0.2899886       -21.03495        0.2899887       -21.03492        0.6421159         87.5685
4.7316                 0.6412803        86.72683        0.2852198       -21.63066        0.2852198       -21.63063        0.6412806        86.72678
4.733                  0.6404453        85.89372         0.280572       -22.23173        0.2805721        -22.2317        0.6404455        85.89369
4.7344                 0.6396126        85.06809        0.2760308        -22.8403        0.2760308       -22.84027        0.6396127        85.06804
4.7358                 0.6387828        84.24884        0.2715807       -23.45814        0.2715807        -23.4581        0.6387828        84.24879
4.7372                 0.6379552        83.43486        0.2672061       -24.08657        0.2672061       -24.08653        0.6379552        83.43484
4.7386                 0.6371276        82.62517        0.2628914       -24.72647        0.2628914       -24.72643        0.6371275        82.62515
4.74                   0.6362963        81.81873        0.2586214        -25.3782        0.2586214       -25.37816        0.6362962         81.8187
4.7414                 0.6354567        81.01466        0.2543816       -26.04163        0.2543817       -26.04158        0.6354565        81.01463
4.7428                 0.6346029         80.2122        0.2501589       -26.71608        0.2501589       -26.71604        0.6346027        80.21218
4.7442                 0.6337283        79.41057        0.2459413       -27.40043        0.2459413       -27.40039         0.633728        79.41054
4.7456                 0.6328252        78.60923        0.2417187       -28.09303        0.2417187       -28.09299        0.6328249        78.60922
4.747                  0.6318857        77.80774        0.2374827       -28.79179        0.2374827       -28.79175        0.6318854        77.80774
4.7484                 0.6309015        77.00571        0.2332272       -29.49422        0.2332272       -29.49417        0.6309012        77.00571
4.7498                 0.6298641        76.20301        0.2289482       -30.19744        0.2289482       -30.19739        0.6298638        76.20302
4.7512                 0.6287652        75.39954        0.2246439       -30.89826         0.224644       -30.89822        0.6287648        75.39954
4.7526                 0.6275966        74.59541         0.220315       -31.59326        0.2203151       -31.59321        0.6275963        74.59541
4.754                   0.626351        73.79073        0.2159643        -32.2788        0.2159644       -32.27875        0.6263507        73.79073
4.7554                 0.6250216        72.98591        0.2115969       -32.95113         0.211597       -32.95109        0.6250213        72.98591
4.7568                 0.6236025         72.1813          0.20722       -33.60649        0.2072201       -33.60644        0.6236022        72.18133
4.7582                  0.622089        71.37744        0.2028427       -34.24116        0.2028428       -34.24111        0.6220886        71.37744
4.7596                 0.6204773        70.57492        0.1984758       -34.85158        0.1984759       -34.85153        0.6204771        70.57492
4.761                  0.6187655        69.77438        0.1941317       -35.43444        0.1941318       -35.43439        0.6187652        69.77444
4.7624                 0.6169524        68.97658        0.1898239       -35.98682         0.189824       -35.98677        0.6169522        68.97661
4.7638                  0.615039         68.1822        0.1855667       -36.50625        0.1855668        -36.5062        0.6150388        68.18219
4.7652                  0.613027        67.39198         0.181375       -36.99088        0.1813751       -36.99084        0.6130268        67.39201
4.7666                 0.6109201        66.60668        0.1772637       -37.43959        0.1772639       -37.43955          0.61092        66.60668
4.768                  0.6087233        65.82693        0.1732475       -37.85206        0.1732477       -37.85202        0.6087232        65.82696
4.7694                 0.6064428         65.0534        0.1693403        -38.2289        0.1693405       -38.22885        0.6064427        65.05343
4.7708                  0.604086        64.28666        0.1655546        -38.5717        0.1655548       -38.57166        0.6040859        64.28666
4.7722                 0.6016613        63.52714        0.1619016       -38.88313        0.1619018       -38.88309        0.6016614        63.52716
4.7736                 0.5991783        62.77519        0.1583903       -39.16687        0.1583905       -39.16684        0.5991782        62.77519
4.775                  0.5966466        62.03107        0.1550274       -39.42768        0.1550276       -39.42765        0.5966466        62.03109
4.7764                 0.5940769        61.29485         0.151817       -39.67123        0.1518172        -39.6712        0.5940769        61.29485
4.7778                 0.5914797        60.56645        0.1487602       -39.90407        0.1487604       -39.90405        0.5914797        60.56643
4.7792                 0.5888656        59.84564        0.1458551        -40.1334        0.1458553       -40.13339        0.5888656        59.84563
4.7806                 0.5862448        59.13204        0.1430971        -40.3669        0.1430972       -40.36689        0.5862446        59.13204
4.782                  0.5836266        58.42513        0.1404781       -40.61249        0.1404783       -40.61249        0.5836265        58.42512
4.7834                   0.58102        57.72419        0.1379879       -40.87809        0.1379881       -40.87808        0.5810199        57.72418
4.7848                 0.5784327        57.02838        0.1356134       -41.17134        0.1356135       -41.17134        0.5784325        57.02837
4.7862                 0.5758709        56.33673        0.1333395       -41.49943        0.1333397       -41.49942        0.5758708        56.33671
4.7876                 0.5733397        55.64813        0.1311497       -41.86881        0.1311499       -41.86881        0.5733394        55.64812
4.789                  0.5708421        54.96141        0.1290261       -42.28506        0.1290263       -42.28506        0.5708418        54.96139
4.7904                 0.5683799        54.27529        0.1269502       -42.75276        0.1269504       -42.75276        0.5683795        54.27528
4.7918                 0.5659525        53.58847        0.1249035       -43.27538        0.1249037       -43.27538        0.5659521        53.58844
4.7932                 0.5635578         52.8996        0.1228677       -43.85522        0.1228679       -43.85523        0.5635573        52.89959
4.7946                 0.5611915         52.2074        0.1208255       -44.49346        0.1208256       -44.49348         0.561191        52.20738
4.796                  0.5588479        51.51056        0.1187605       -45.19017        0.1187607       -45.19018        0.5588474        51.51054
4.7974                 0.5565192        50.80787        0.1166584       -45.94431        0.1166585       -45.94434        0.5565187        50.80786
4.7988                 0.5541963        50.09821        0.1145063       -46.75392        0.1145064       -46.75394        0.5541958        50.09821
4.8002                 0.5518685        49.38061        0.1122938        -47.6161        0.1122938       -47.61611        0.5518678        49.38061
4.8016                 0.5495239        48.65419        0.1100124       -48.52719        0.1100125       -48.52721        0.5495233        48.65419
4.803                  0.5471497        47.91827        0.1076565       -49.48286        0.1076566       -49.48286        0.5471491        47.91827
4.8044                 0.5447325        47.17233        0.1052226       -50.47817        0.1052227       -50.47818        0.5447319        47.17234
4.8058                 0.5422584        46.41604        0.1027099       -51.50779        0.1027099        -51.5078        0.5422577        46.41606
4.8072                 0.5397131         45.6493        0.1001198       -52.56599        0.1001199       -52.56599        0.5397124        45.64931
4.8086                 0.5370829        44.87215       0.09745643       -53.64683       0.09745648       -53.64683        0.5370822        44.87218
4.81                   0.5343543        44.08489       0.09472582       -54.74431       0.09472588        -54.7443        0.5343536        44.08492
4.8114                 0.5315144        43.28799       0.09193632       -55.85242       0.09193637       -55.85241        0.5315137        43.28802
4.8128                 0.5285513        42.48212       0.08909807       -56.96538       0.08909812       -56.96537        0.5285507        42.48215
4.8142                 0.5254546         41.6681       0.08622294       -58.07781       0.08622298       -58.07779         0.525454        41.66815
4.8156                 0.5222149        40.84696       0.08332415       -59.18492       0.08332418        -59.1849        0.5222144        40.84699
4.817                  0.5188247        40.01981       0.08041608       -60.28278       0.08041613       -60.28275        0.5188242        40.01986
4.8184                 0.5152782        39.18795       0.07751388       -61.36863       0.07751394       -61.36861        0.5152777          39.188
4.8198                 0.5115712        38.35277       0.07463313       -62.44126       0.07463317       -62.44123        0.5115706        38.35281
4.8212                 0.5077016        37.51569       0.07178944       -63.50133       0.07178949       -63.50129        0.5077013        37.51574
4.8226                 0.5036695        36.67825       0.06899804       -64.55188        0.0689981       -64.55183        0.5036691        36.67829
4.824                  0.4994765        35.84196       0.06627338        -65.5988       0.06627344       -65.59876        0.4994762        35.84201
4.8254                 0.4951266        35.00837       0.06362869       -66.65134       0.06362876       -66.65127        0.4951262        35.00842
4.8268                 0.4906252        34.17899       0.06107557       -67.72252       0.06107564       -67.72245        0.4906248        34.17904
4.8282                 0.4859794        33.35525       0.05862367        -68.8296       0.05862375       -68.82953        0.4859791         33.3553
4.8296                 0.4811982        32.53852       0.05628041       -69.99451       0.05628049       -69.99443        0.4811979        32.53856
4.831                  0.4762917        31.73004       0.05405084       -71.24391       0.05405093       -71.24384        0.4762914        31.73008
4.8324                 0.4712708        30.93092       0.05193768       -72.60938       0.05193778        -72.6093        0.4712706        30.93096
4.8338                 0.4661478        30.14209       0.04994153       -74.12728       0.04994163        -74.1272        0.4661476        30.14213
4.8352                 0.4609351        29.36431       0.04806137       -75.83845       0.04806148       -75.83837        0.4609349        29.36434
4.8366                 0.4556455         28.5981       0.04629528       -77.78779       0.04629539       -77.78771        0.4556453        28.59813
4.838                  0.4502914         27.8438        0.0446414       -80.02364       0.04464152       -80.02355        0.4502912        27.84382
4.8394                 0.4448852        27.10147       0.04309922       -82.59695       0.04309935       -82.59686        0.4448851        27.10149
4.8408                 0.4394384        26.37097       0.04167102       -85.56015       0.04167116       -85.56005        0.4394383        26.37099
4.8422                 0.4339614         25.6519       0.04036347       -88.96549       0.04036361       -88.96541        0.4339612         25.6519
4.8436                 0.4284631         24.9436       0.03918929       -92.86255       0.03918943       -92.86245        0.4284628        24.94361
4.845                  0.4229509        24.24524       0.03816875       -97.29439        0.0381689       -97.29428        0.4229506        24.24524
4.8464                 0.4174302        23.55575       0.03733084       -102.2921       0.03733098        -102.292        0.4174299        23.55575
4.8478                 0.4119045        22.87392       0.03671355       -107.8677        0.0367137       -107.8676        0.4119041        22.87391
4.8492                 0.4063747        22.19837       0.03636309       -114.0054       0.03636324       -114.0052        0.4063744        22.19835
4.8506                 0.4008396        21.52765       0.03633134       -120.6543       0.03633149       -120.6541        0.4008392        21.52764
4.852                  0.3952954        20.86027       0.03667162       -127.7243       0.03667177       -127.7242         0.395295        20.86025
4.8534                 0.3897359        20.19474       0.03743317       -135.0905       0.03743331       -135.0903        0.3897355        20.19473
4.8548                 0.3841527        19.52966       0.03865541       -142.6043       0.03865555       -142.6042        0.3841523        19.52964
4.8562                 0.3785349        18.86375       0.04036356       -150.1139       0.04036369       -150.1137        0.3785344        18.86374
4.8576                 0.3728698        18.19596       0.04256659       -157.4833       0.04256672       -157.4831        0.3728693        18.19595
4.859                  0.3671429        17.52549       0.04525802       -164.6077       0.04525814       -164.6075        0.3671423        17.52548
4.8604                 0.3613381         16.8519       0.04841859       -171.4192       0.04841872        -171.419        0.3613375        16.85189
4.8618                 0.3554383        16.17514       0.05201992       -177.8847       0.05202005       -177.8845        0.3554377        16.17513
4.8632                 0.3494258        15.49567       0.05602787         176.001         0.056028        176.0012        0.3494251        15.49567
4.8646                 0.3432824         14.8145       0.06040533        170.2241       0.06040546        170.2242        0.3432818        14.81449
4.866                  0.3369904        14.13322       0.06511403        164.7591       0.06511416        164.7592        0.3369898        14.13322
4.8674                 0.3305326        13.45416       0.07011566        159.5755       0.07011578        159.5756         0.330532        13.45417
4.8688                 0.3238931         12.7804       0.07537243        154.6412       0.07537255        154.6413        0.3238925         12.7804
4.8702                 0.3170576        12.11582       0.08084733        149.9255       0.08084746        149.9256        0.3170569        12.11583
4.8716                  0.310014        11.46529       0.08650412        145.4002       0.08650426        145.4002        0.3100133         11.4653