! TOUCHSTONE file generated by CST MICROWAVE STUDIO
! Date and time: Sat Nov 30 13:12:03 2024
! Project name: test_tuning.cst
! Parameters = {airCoaxOuterDiameter=3; chamferAngle=45; chamferWidth=24; connectorLength=10; drillingHoleDiameter=4.1; feedLength=60; flareDiameter=130; flareLength=70; gratingDistance=0; gratingGap=1.90274; outletLength=30; polarizerLength=134; probe1Diameter=1.3; probe1Distance=14; probe1Length=15.5; probe2Diameter=1.3; probe2Distance=0; probe2Length=15.5; probeLength=15.5; smaInnerDiameter=1.3; smaOuterDiameter=4.1; transitionCoefficient=1.33; waveguideFeedLength=30; waveguideSide=50; waveguideThickness=3; wireCount=25; wireDiameter=1.17699}
! Header version: 2024
! Port assignment regex: !\s*Touchstone port\s*([0-9]+)\s*=\s*(CST MWS port|CST DES external port|CST DES block port)\s*(.+)\s* \(\"(.*)\"\)(\s*mode\s*([0-9]+))?.*
! Touchstone port assignment:
! Touchstone port 1 = CST MWS port 1 ("Input1")
! Touchstone port 2 = CST MWS port 2 ("Input2")
# GHz S MA R 50
4.6                    0.5339345       -143.9544        0.4028895         7.33448        0.4028891        7.334449        0.5339354       -143.9546
4.6014                 0.5357638       -144.2591        0.4046917        6.843666        0.4046912         6.84364        0.5357646       -144.2593
4.6028                 0.5376605       -144.5774         0.406462        6.335923        0.4064615        6.335899        0.5376613       -144.5776
4.6042                 0.5396165       -144.9103        0.4081853        5.812042        0.4081848        5.812022        0.5396174       -144.9105
4.6056                 0.5416229       -145.2585        0.4098475         5.27311         0.409847        5.273094        0.5416237       -145.2587
4.607                  0.5436697       -145.6229        0.4114353        4.720476        0.4114346        4.720467        0.5436706       -145.6231
4.6084                 0.5457468       -146.0039        0.4129367        4.155732        0.4129361        4.155727        0.5457475       -146.0041
4.6098                 0.5478429       -146.4021        0.4143413        3.580673        0.4143407        3.580675        0.5478437       -146.4023
4.6112                  0.549947       -146.8179        0.4156407        2.997278          0.41564        2.997286        0.5499477       -146.8181
4.6126                 0.5520475       -147.2516        0.4168281        2.407661        0.4168274        2.407676        0.5520481       -147.2518
4.614                  0.5541325       -147.7032        0.4178992        1.814048        0.4178986        1.814068        0.5541331       -147.7034
4.6154                 0.5561905       -148.1729         0.418852        1.218727        0.4188513        1.218754        0.5561911       -148.1732
4.6168                 0.5582096       -148.6607        0.4196866       0.6240232         0.419686       0.6240557        0.5582103       -148.6609
4.6182                 0.5601786       -149.1663        0.4204059      0.03224729        0.4204053      0.03228575        0.5601791       -149.1666
4.6196                  0.562086       -149.6897         0.421015      -0.5543359        0.4210144      -0.5542917        0.5620865         -149.69
4.621                  0.5639209       -150.2306        0.4215217       -1.133551         0.421521       -1.133502        0.5639214       -150.2308
4.6224                 0.5656729       -150.7886        0.4219356       -1.703353        0.4219351       -1.703298        0.5656732       -150.7888
4.6238                 0.5673315       -151.3633        0.4222696       -2.261863         0.422269       -2.261803         0.567332       -151.3635
4.6252                 0.5688875       -151.9543        0.4225376       -2.807415        0.4225371        -2.80735        0.5688878       -151.9545
4.6266                 0.5703313       -152.5611        0.4227561       -3.338586        0.4227557       -3.338516        0.5703316       -152.5613
4.628                  0.5716545       -153.1833        0.4229432       -3.854237        0.4229428       -3.854164        0.5716548       -153.1835
4.6294                  0.572849       -153.8203        0.4231184       -4.353549         0.423118       -4.353472        0.5728493       -153.8206
4.6308                 0.5739072       -154.4716        0.4233022       -4.836048        0.4233018       -4.835969        0.5739074       -154.4718
4.6322                 0.5748219       -155.1367        0.4235162       -5.301633        0.4235159       -5.301552        0.5748222       -155.1369
4.6336                 0.5755869       -155.8149        0.4237822       -5.750599        0.4237819       -5.750515        0.5755871       -155.8151
4.635                  0.5761961       -156.5057        0.4241221       -6.183644        0.4241219       -6.183559        0.5761962       -156.5059
4.6364                  0.576644       -157.2086        0.4245576       -6.601877        0.4245574       -6.601791        0.5766441       -157.2088
4.6378                 0.5769257        -157.923        0.4251096       -7.006814        0.4251095       -7.006729        0.5769258       -157.9232
4.6392                 0.5770366       -158.6483        0.4257979       -7.400364        0.4257977       -7.400279        0.5770367       -158.6485
4.6406                 0.5769729       -159.3841        0.4266406       -7.784801        0.4266405       -7.784716        0.5769729       -159.3843
4.642                  0.5767308       -160.1297        0.4276541       -8.162734        0.4276541       -8.162651        0.5767308       -160.1299
4.6434                  0.576307       -160.8847        0.4288526       -8.537062        0.4288527        -8.53698        0.5763072       -160.8849
4.6448                 0.5756991       -161.6485        0.4302477        -8.91092        0.4302478        -8.91084        0.5756991       -161.6487
4.6462                 0.5749043       -162.4207        0.4318483       -9.287621        0.4318484       -9.287545        0.5749044       -162.4209
4.6476                 0.5739209       -163.2008        0.4336603       -9.670592        0.4336604       -9.670516         0.573921        -163.201
4.649                  0.5727471       -163.9883        0.4356866        -10.0633        0.4356867       -10.06323        0.5727471       -163.9884
4.6504                 0.5713815       -164.7827         0.437927        -10.4692        0.4379272       -10.46913        0.5713816       -164.7828
4.6518                 0.5698232       -165.5835        0.4403782       -10.89164        0.4403785       -10.89158        0.5698233       -165.5837
4.6532                 0.5680717       -166.3905        0.4430341       -11.33385        0.4430342       -11.33379        0.5680717       -166.3906
4.6546                 0.5661264        -167.203        0.4458853       -11.79881        0.4458854       -11.79875        0.5661265       -167.2032
4.656                  0.5639875       -168.0208          0.44892       -12.28928        0.4489202       -12.28922        0.5639877       -168.0209
4.6574                 0.5616553       -168.8434         0.452124       -12.80771        0.4521243       -12.80766        0.5616555       -168.8435
4.6588                 0.5591305       -169.6703        0.4554809       -13.35625        0.4554811        -13.3562        0.5591307       -169.6705
4.6602                 0.5564139       -170.5014        0.4589723       -13.93668        0.4589726       -13.93664        0.5564141       -170.5016
4.6616                 0.5535067       -171.3363        0.4625785       -14.55046        0.4625788       -14.55042        0.5535069       -171.3364
4.663                  0.5504103       -172.1744        0.4662783       -15.19869        0.4662787       -15.19865        0.5504105       -172.1746
4.6644                 0.5471267       -173.0158        0.4700499       -15.88212        0.4700502       -15.88209        0.5471269       -173.0159
4.6658                 0.5436576       -173.8599        0.4738708       -16.60118        0.4738712       -16.60116        0.5436579         -173.86
4.6672                 0.5400052       -174.7065        0.4777184         -17.356        0.4777187       -17.35598        0.5400055       -174.7067
4.6686                 0.5361718       -175.5556        0.4815698       -18.14642        0.4815701       -18.14641        0.5361721       -175.5557
4.67                   0.5321598       -176.4067        0.4854028       -18.97203        0.4854031       -18.97202        0.5321602       -176.4068
4.6714                  0.527972       -177.2599        0.4891954       -19.83219        0.4891958       -19.83218        0.5279724         -177.26
4.6728                 0.5236106       -178.1149        0.4929268       -20.72606        0.4929271       -20.72605        0.5236111        -178.115
4.6742                 0.5190785       -178.9716        0.4965766       -21.65264        0.4965769       -21.65264         0.519079       -178.9717
4.6756                 0.5143783       -179.8301        0.5001259        -22.6108        0.5001262       -22.61079        0.5143788       -179.8302
4.677                  0.5095124        179.3097        0.5035569       -23.59928        0.5035572       -23.59928        0.5095129        179.3096
4.6784                 0.5044831        178.4479        0.5068531       -24.61677        0.5068533       -24.61677        0.5044837        178.4477
4.6798                 0.4992928        177.5842        0.5099992       -25.66188        0.5099994       -25.66188        0.4992934        177.5841
4.6812                 0.4939434        176.7186        0.5129816        -26.7332        0.5129819        -26.7332         0.493944        176.7186
4.6826                 0.4884366        175.8511         0.515788       -27.82926        0.5157883       -27.82931        0.4884372         175.851
4.684                  0.4827738        174.9814        0.5184075       -28.94873        0.5184077       -28.94873        0.4827744        174.9813
4.6854                 0.4769561        174.1093        0.5208306       -30.09009        0.5208309       -30.09012        0.4769567        174.1092
4.6868                 0.4709842        173.2346        0.5230493       -31.25206        0.5230495       -31.25206        0.4709849        173.2345
4.6882                 0.4648584         172.357        0.5250567       -32.43327        0.5250568       -32.43327        0.4648591        172.3569
4.6896                 0.4585787        171.4763        0.5268472       -33.63247        0.5268474       -33.63253        0.4585794        171.4762
4.691                  0.4521444        170.5923        0.5284164       -34.84849        0.5284165       -34.84852        0.4521451        170.5922
4.6924                 0.4455545        169.7045        0.5297608       -36.08014         0.529761       -36.08017        0.4455553        169.7044
4.6938                 0.4388078        168.8128        0.5308782       -37.32644        0.5308783       -37.32644        0.4388085        168.8127
4.6952                 0.4319023        167.9168        0.5317667       -38.58636        0.5317668       -38.58636         0.431903        167.9167
4.6966                 0.4248359        167.0164        0.5324256       -39.85901        0.5324257       -39.85904        0.4248366        167.0163
4.698                  0.4176059        166.1113        0.5328546       -41.14358        0.5328547       -41.14361        0.4176067        166.1112
4.6994                 0.4102096        165.2013        0.5330539        -42.4394        0.5330539       -42.43942        0.4102104        165.2012
4.7008                 0.4026438        164.2863        0.5330242       -43.74574        0.5330242       -43.74577        0.4026446        164.2862
4.7022                 0.3949051        163.3662        0.5327664       -45.06204        0.5327664       -45.06207        0.3949059        163.3662
4.7036                 0.3869899        162.4411        0.5322817       -46.38776        0.5322817       -46.38782        0.3869908        162.4411
4.705                  0.3788949        161.5111        0.5315715       -47.72254        0.5315713       -47.72257        0.3788957         161.511
4.7064                 0.3706162        160.5763        0.5306368       -49.06587        0.5306368        -49.0659         0.370617        160.5762
4.7078                 0.3621506        159.6371        0.5294793       -50.41746        0.5294792       -50.41749        0.3621514        159.6371
4.7092                 0.3534945         158.694           0.5281       -51.77701        0.5280999       -51.77704        0.3534954         158.694
4.7106                 0.3446451        157.7477        0.5264999       -53.14423        0.5264998       -53.14425        0.3446459        157.7476
4.712                  0.3355996        156.7989        0.5246803       -54.51887        0.5246801       -54.51889        0.3356004        156.7988
4.7134                 0.3263558        155.8487        0.5226416        -55.9007        0.5226414       -55.90073        0.3263566        155.8486
4.7148                 0.3169119        154.8984        0.5203847       -57.28951        0.5203844       -57.28953        0.3169127        154.8983
4.7162                  0.307267        153.9496        0.5179098       -58.68506        0.5179096       -58.68507        0.3072678        153.9495
4.7176                 0.2974208        153.0041        0.5152173        -60.0871        0.5152171       -60.08711        0.2974215         153.004
4.719                  0.2873737        152.0643        0.5123074       -61.49538        0.5123072       -61.49539        0.2873745        152.0643
4.7204                 0.2771273         151.133        0.5091803       -62.90959        0.5091799       -62.90961        0.2771281         151.133
4.7218                 0.2666841        150.2134        0.5058358       -64.32942        0.5058356       -64.32942        0.2666849        150.2134
4.7232                 0.2560477        149.3095        0.5022745       -65.75448        0.5022742       -65.75449        0.2560485        149.3095
4.7246                 0.2452229         148.426        0.4984964       -67.18435        0.4984961       -67.18436        0.2452238         148.426
4.726                  0.2342159        147.5687         0.494502       -68.61853        0.4945017       -68.61856        0.2342168        147.5687
4.7274                 0.2230342        146.7446        0.4902921       -70.05651        0.4902919       -70.05651         0.223035        146.7446
4.7288                 0.2116869        145.9621        0.4858679       -71.49762        0.4858677       -71.49762        0.2116877        145.9621
4.7302                 0.2001848        145.2318         0.481231        -72.9412        0.4812307        -72.9412        0.2001857        145.2318
4.7316                 0.1885407        144.5669        0.4763833       -74.38649         0.476383       -74.38649        0.1885415        144.5669
4.733                  0.1767692         143.984        0.4713277       -75.83261        0.4713274       -75.83261        0.1767701        143.9841
4.7344                  0.164888        143.5045        0.4660674        -77.2787        0.4660672        -77.2787        0.1648889        143.5046
4.7358                 0.1529174        143.1564        0.4606067       -78.72372        0.4606065       -78.72372        0.1529183        143.1565
4.7372                 0.1408817        142.9769        0.4549506       -80.16663        0.4549503       -80.16661        0.1408827        142.9769
4.7386                 0.1288107        143.0165        0.4491047       -81.60625        0.4491045       -81.60625        0.1288117        143.0166
4.74                   0.1167414        143.3459        0.4430759       -83.04141        0.4430756       -83.04141        0.1167424         143.346
4.7414                 0.1047219         144.066        0.4368717       -84.47082        0.4368714        -84.4708        0.1047229        144.0662
4.7428                0.09281711        145.3261        0.4305008       -85.89311        0.4305005       -85.89311       0.09281818        145.3262
4.7442                0.08112099         147.353        0.4239727       -87.30696        0.4239724       -87.30694       0.08112208        147.3531
4.7456                0.06977679        150.5028        0.4172979       -88.71087        0.4172976       -88.71087       0.06977794        150.5028
4.747                 0.05901869        155.3454        0.4104878       -90.10346        0.4104876       -90.10343       0.05901986        155.3453
4.7484                0.04925119        162.7781        0.4035548       -91.48319        0.4035546       -91.48317       0.04925239        162.7779
4.7498                0.04118576        174.0382        0.3965119        -92.8486        0.3965117       -92.84859       0.04118692        174.0376
4.7512                0.03596093       -169.9785        0.3893731       -94.19822        0.3893729       -94.19819       0.03596193       -169.9797
4.7526                0.03482625        -150.803        0.3821529       -95.53057        0.3821528       -95.53054       0.03482694       -150.8048
4.754                 0.03807852       -132.9354        0.3748665       -96.84425        0.3748663       -96.84424       0.03807883       -132.9373
4.7554                0.04469335       -119.5265        0.3675294       -98.13793        0.3675292        -98.1379       0.04469333       -119.5282
4.7568                0.05335577       -110.4776        0.3601575       -99.41028        0.3601574       -99.41025       0.05335551        -110.479
4.7582                0.06315017       -104.5411        0.3527672       -100.6602         0.352767       -100.6601       0.06314975       -104.5422
4.7596                0.07354887       -100.6465        0.3453744       -101.8865        0.3453743       -101.8865       0.07354833       -100.6475
4.761                 0.08425428       -98.08882        0.3379954       -103.0884        0.3379953       -103.0884       0.08425367       -98.08966
4.7624                0.09509191       -96.42735         0.330646       -104.2652        0.3306459       -104.2651       0.09509123       -96.42807
4.7638                 0.1059538       -95.38439        0.3233416       -105.4162        0.3233415       -105.4161         0.105953       -95.38503
4.7652                 0.1167693       -94.78018        0.3160972       -106.5411         0.316097       -106.5411        0.1167685       -94.78074
4.7666                 0.1274904       -94.49458        0.3089266       -107.6398        0.3089265       -107.6398        0.1274896       -94.49508
4.768                  0.1380831       -94.44491        0.3018432       -108.7126        0.3018431       -108.7125        0.1380823       -94.44536
4.7694                 0.1485229       -94.57258         0.294859       -109.7596        0.2948589       -109.7596        0.1485221       -94.57299
4.7708                  0.158792       -94.83508        0.2879849       -110.7818        0.2879848       -110.7817        0.1587912       -94.83545
4.7722                 0.1688776        -95.2009        0.2812304       -111.7799        0.2812303       -111.7799        0.1688767       -95.20124
4.7736                 0.1787708       -95.64617        0.2746036       -112.7552        0.2746036       -112.7552        0.1787699       -95.64651
4.775                  0.1884659       -96.15264        0.2681112       -113.7093        0.2681111       -113.7093        0.1884651       -96.15294
4.7764                 0.1979601       -96.70601        0.2617578        -114.644        0.2617578       -114.6439        0.1979593       -96.70631
4.7778                 0.2072524       -97.29517        0.2555469       -115.5611        0.2555469       -115.5611        0.2072516       -97.29545
4.7792                 0.2163442       -97.91125        0.2494802       -116.4631        0.2494801        -116.463        0.2163434        -97.9115
4.7806                 0.2252384       -98.54722        0.2435575       -117.3522        0.2435574       -117.3521        0.2252376       -98.54745
4.782                  0.2339393       -99.19749        0.2377772        -118.231        0.2377772        -118.231        0.2339385       -99.19772
4.7834                 0.2424525       -99.85765        0.2321364       -119.1023        0.2321364       -119.1022        0.2424518       -99.85787
4.7848                 0.2507847       -100.5242        0.2266304       -119.9686        0.2266304       -119.9686        0.2507841       -100.5245
4.7862                 0.2589434       -101.1945        0.2212538       -120.8328        0.2212537       -120.8328        0.2589428       -101.1948
4.7876                 0.2669366       -101.8666        0.2159995       -121.6974        0.2159995       -121.6974         0.266936       -101.8668
4.789                  0.2747728       -102.5389          0.21086       -122.5651          0.21086       -122.5651        0.2747723       -102.5391
4.7904                 0.2824607       -103.2103         0.205827       -123.4382         0.205827       -123.4381        0.2824602       -103.2105
4.7918                  0.290009       -103.8805        0.2008916       -124.3189        0.2008916       -124.3189        0.2900085       -103.8806
4.7932                 0.2974261       -104.5489        0.1960449       -125.2093        0.1960448       -125.2092        0.2974257       -104.5491
4.7946                 0.3047204       -105.2157        0.1912776        -126.111        0.1912776        -126.111        0.3047199       -105.2159
4.796                  0.3118993        -105.881         0.186581       -127.0254         0.186581       -127.0254         0.311899       -105.8812
4.7974                 0.3189699       -106.5453        0.1819465       -127.9537        0.1819465       -127.9537        0.3189695       -106.5455
4.7988                 0.3259383       -107.2091        0.1773662       -128.8967        0.1773661       -128.8967         0.325938       -107.2093
4.8002                 0.3328098       -107.8731        0.1728328       -129.8547        0.1728327       -129.8547        0.3328095       -107.8733
4.8016                 0.3395885        -108.538          0.16834       -130.8281        0.1683399        -130.828        0.3395883       -108.5381
4.803                  0.3462777       -109.2045        0.1638824       -131.8164        0.1638824       -131.8164        0.3462775       -109.2046
4.8044                 0.3528793       -109.8733        0.1594559       -132.8195        0.1594559       -132.8194        0.3528791       -109.8735
4.8058                 0.3593942       -110.5453        0.1550574       -133.8364        0.1550573       -133.8364         0.359394       -110.5455
4.8072                  0.365822       -111.2212        0.1506848       -134.8665        0.1506848       -134.8665        0.3658219       -111.2214
4.8086                 0.3721617       -111.9015        0.1463376       -135.9085        0.1463376       -135.9085        0.3721615       -111.9017
4.81                   0.3784105       -112.5868        0.1420163       -136.9613        0.1420163       -136.9613        0.3784104        -112.587
4.8114                 0.3845653       -113.2775        0.1377225       -138.0237        0.1377225       -138.0237        0.3845652       -113.2777
4.8128                 0.3906217       -113.9741        0.1334591       -139.0944        0.1334591       -139.0944        0.3906216       -113.9743
4.8142                 0.3965748       -114.6767        0.1292297       -140.1722        0.1292297       -140.1722        0.3965747       -114.6769
4.8156                  0.402419       -115.3855         0.125039       -141.2562         0.125039       -141.2562        0.4024189       -115.3857
4.817                  0.4081481       -116.1003        0.1208926       -142.3457        0.1208926       -142.3457         0.408148       -116.1005
4.8184                 0.4137559       -116.8212        0.1167964       -143.4403        0.1167964       -143.4403        0.4137557       -116.8214
4.8198                 0.4192355       -117.5479         0.112757       -144.5402         0.112757       -144.5401        0.4192354       -117.5481
4.8212                 0.4245805         -118.28        0.1087812       -145.6461        0.1087812       -145.6461        0.4245804       -118.2802
4.8226                 0.4297843        -119.017        0.1048761       -146.7596         0.104876       -146.7596        0.4297842       -119.0172
4.824                  0.4348406       -119.7585        0.1010483       -147.8832        0.1010483       -147.8832        0.4348405       -119.7587
4.8254                 0.4397436       -120.5037       0.09730463       -149.0203       0.09730461       -149.0203        0.4397436       -120.5039
4.8268                 0.4444882       -121.2521       0.09365121       -150.1757        0.0936512       -150.1757         0.444488       -121.2523
4.8282                 0.4490694       -122.0028       0.09009367       -151.3556       0.09009364       -151.3555        0.4490693        -122.003
4.8296                 0.4534834       -122.7551       0.08663683       -152.5676       0.08663681       -152.5675        0.4534834       -122.7553
4.831                  0.4577274       -123.5082       0.08328474       -153.8212        0.0832847       -153.8211        0.4577273       -123.5084
4.8324                 0.4617989       -124.2612        0.0800404       -155.1276       0.08004039       -155.1276        0.4617988       -124.2614
4.8338                  0.465697       -125.0134       0.07690594       -156.5003       0.07690593       -156.5003        0.4656969       -125.0135
4.8352                 0.4694212       -125.7638       0.07388256       -157.9547       0.07388253       -157.9546        0.4694211        -125.764
4.8366                 0.4729726       -126.5118       0.07097055       -159.5083       0.07097053       -159.5083        0.4729725        -126.512
4.838                  0.4763526       -127.2567       0.06816965       -161.1812       0.06816963       -161.1812        0.4763524       -127.2568
4.8394                 0.4795641       -127.9977       0.06547922       -162.9957        0.0654792       -162.9957        0.4795639       -127.9979
4.8408                 0.4826105       -128.7343       0.06289855       -164.9765       0.06289853       -164.9764        0.4826104       -128.7345
4.8422                 0.4854964        -129.466       0.06042748       -167.1504       0.06042745       -167.1503        0.4854962       -129.4662
4.8436                 0.4882266       -130.1924       0.05806679       -169.5466       0.05806678       -169.5466        0.4882266       -130.1925
4.845                  0.4908069       -130.9131       0.05581899       -172.1963       0.05581896       -172.1963        0.4908069       -130.9133
4.8464                 0.4932435        -131.628       0.05368895       -175.1323       0.05368893       -175.1323        0.4932435       -131.6282
4.8478                 0.4955427       -132.3371       0.05168474        -178.388       0.05168472        -178.388        0.4955427       -132.3373
4.8492                 0.4977112       -133.0403       0.04981837        178.0033       0.04981836        178.0034        0.4977112       -133.0404
4.8506                 0.4997556       -133.7378       0.04810656        174.0106       0.04810655        174.0106        0.4997556       -133.7379
4.852                  0.5016821       -134.4299       0.04657123        169.6075       0.04657121        169.6076        0.5016822       -134.4301
4.8534                 0.5034969        -135.117       0.04523971        164.7764        0.0452397        164.7765        0.5034969       -135.1171
4.8548                 0.5052056       -135.7996       0.04414444        159.5126       0.04414443        159.5126        0.5052056       -135.7998
4.8562                 0.5068128       -136.4783       0.04332182        153.8295       0.04332181        153.8295        0.5068129       -136.4785
4.8576                 0.5083226       -137.1539       0.04281021        147.7631        0.0428102        147.7631        0.5083226       -137.1541
4.859                  0.5097377       -137.8271       0.04264706        141.3741       0.04264705        141.3741        0.5097378       -137.8273
4.8604                   0.51106       -138.4988       0.04286537        134.7466       0.04286536        134.7466        0.5110601       -138.4989
4.8618                 0.5122899       -139.1698        0.0434902        127.9817       0.04349019        127.9817          0.51229       -139.1699
4.8632                 0.5134267        -139.841       0.04453597        121.1876       0.04453596        121.1877        0.5134267       -139.8412
4.8646                 0.5144678       -140.5134       0.04600507        114.4676       0.04600507        114.4677         0.514468       -140.5136
4.866                  0.5154097        -141.188       0.04788826        107.9097       0.04788826        107.9097        0.5154098       -141.1881
4.8674                  0.516247       -141.8654       0.05016623        101.5797       0.05016622        101.5797        0.5162472       -141.8656
4.8688                 0.5169731       -142.5466       0.05281214        95.51975       0.05281214        95.51978        0.5169733       -142.5468
4.8702                 0.5175799       -143.2324       0.05579425         89.7502       0.05579425        89.75021        0.5175801       -143.2325
4.8716                 0.5180581       -143.9232        0.0590782        84.27365        0.0590782        84.27366        0.5180582       -143.9234