! TOUCHSTONE file generated by CST MICROWAVE STUDIO
! Date and time: Sat Nov 30 13:12:03 2024
! Project name: test_tuning.cst
! Parameters = {airCoaxOuterDiameter=3; chamferAngle=45; chamferWidth=24; connectorLength=10; drillingHoleDiameter=4.1; feedLength=60; flareDiameter=130; flareLength=70; gratingDistance=0; gratingGap=1.90274; outletLength=30; polarizerLength=134; probe1Diameter=1.3; probe1Distance=14; probe1Length=16; probe2Diameter=1.3; probe2Distance=0; probe2Length=16; probeLength=16; smaInnerDiameter=1.3; smaOuterDiameter=4.1; transitionCoefficient=1.33; waveguideFeedLength=30; waveguideSide=50; waveguideThickness=3; wireCount=25; wireDiameter=1.17699}
! Header version: 2024
! Port assignment regex: !\s*Touchstone port\s*([0-9]+)\s*=\s*(CST MWS port|CST DES external port|CST DES block port)\s*(.+)\s* \(\"(.*)\"\)(\s*mode\s*([0-9]+))?.*
! Touchstone port assignment:
! Touchstone port 1 = CST MWS port 1 ("Input1")
! Touchstone port 2 = CST MWS port 2 ("Input2")
# GHz S MA R 50
4.6                    0.5637017       -145.2215        0.3813932        3.306019         0.381393        3.306019         0.563703       -145.2215
4.6014                 0.5653835        -145.488        0.3830018        2.862973        0.3830015         2.86297        0.5653851        -145.488
4.6028                 0.5671477       -145.7669        0.3846108        2.405522        0.3846106        2.405514        0.5671496       -145.7669
4.6042                 0.5689865       -146.0593        0.3862079        1.933765        0.3862077        1.933752        0.5689885       -146.0593
4.6056                 0.5708903       -146.3662        0.3877807        1.448088        0.3877806        1.448069        0.5708926       -146.3663
4.607                   0.572849       -146.6888        0.3893172       0.9491566        0.3893171       0.9491307        0.5728514       -146.6889
4.6084                 0.5748506       -147.0278        0.3908058       0.4378996        0.3908057       0.4378663        0.5748531       -147.0279
4.6098                  0.576883       -147.3838        0.3922357     -0.08450443        0.3922356     -0.08454553        0.5768856        -147.384
4.6112                 0.5789329       -147.7575        0.3935974      -0.6166528        0.3935974      -0.6167018        0.5789355       -147.7577
4.6126                 0.5809867       -148.1492        0.3948828       -1.156945        0.3948827       -1.157002        0.5809893       -148.1494
4.614                  0.5830301       -148.5592         0.396085       -1.703611        0.3960849       -1.703676        0.5830327       -148.5594
4.6154                 0.5850492       -148.9877        0.3971992       -2.254747        0.3971991       -2.254819        0.5850516       -148.9879
4.6168                 0.5870296       -149.4346        0.3982225       -2.808348        0.3982224       -2.808427        0.5870319       -149.4348
4.6182                 0.5889572       -149.8997         0.399154       -3.362344        0.3991539        -3.36243        0.5889593          -149.9
4.6196                 0.5908181        -150.383         0.399995       -3.914642        0.3999948       -3.914734        0.5908201       -150.3833
4.621                   0.592599        -150.884         0.400749       -4.463162        0.4007488       -4.463259        0.5926009       -150.8843
4.6224                  0.594287       -151.4023        0.4014218        -5.00588        0.4014216       -5.005981        0.5942887       -151.4026
4.6238                 0.5958701       -151.9373        0.4020214       -5.540869         0.402021       -5.540975        0.5958715       -151.9376
4.6252                 0.5973364       -152.4886        0.4025578       -6.066341        0.4025574       -6.066449        0.5973377       -152.4889
4.6266                 0.5986754       -153.0554        0.4030434       -6.580684         0.403043       -6.580792        0.5986764       -153.0557
4.628                  0.5998773        -153.637        0.4034922       -7.082509        0.4034917       -7.082618        0.5998781       -153.6373
4.6294                 0.6009331       -154.2328        0.4039201       -7.570685        0.4039195       -7.570793        0.6009338        -154.233
4.6308                 0.6018347       -154.8419        0.4043445       -8.044375        0.4043439       -8.044482        0.6018351       -154.8421
4.6322                 0.6025749       -155.4636         0.404784       -8.503075        0.4047833       -8.503176        0.6025752       -155.4638
4.6336                 0.6031476       -156.0971        0.4052582       -8.946632        0.4052574        -8.94673        0.6031478       -156.0973
4.635                  0.6035474       -156.7416        0.4057872        -9.37528        0.4057864       -9.375372        0.6035475       -156.7418
4.6364                   0.60377       -157.3964        0.4063916       -9.789647        0.4063907       -9.789734          0.60377       -157.3966
4.6378                 0.6038117       -158.0607        0.4070917       -10.19077        0.4070907       -10.19085        0.6038118       -158.0609
4.6392                 0.6036697       -158.7338        0.4079074       -10.58009        0.4079064       -10.58016        0.6036697        -158.734
4.6406                 0.6033419        -159.415        0.4088577       -10.95944        0.4088566        -10.9595        0.6033419       -159.4151
4.642                   0.602827       -160.1035        0.4099603       -11.33103        0.4099592       -11.33109        0.6028271       -160.1037
4.6434                 0.6021243       -160.7989        0.4112312       -11.69742        0.4112302       -11.69747        0.6021245        -160.799
4.6448                 0.6012335       -161.5004        0.4126848       -12.06147        0.4126837       -12.06151        0.6012339       -161.5005
4.6462                  0.600155       -162.2075        0.4143326       -12.42629        0.4143315       -12.42631        0.6001554       -162.2076
4.6476                 0.5988896       -162.9197        0.4161841       -12.79517         0.416183       -12.79519        0.5988901       -162.9198
4.649                  0.5974384       -163.6366        0.4182457       -13.17157        0.4182447       -13.17158        0.5974391       -163.6367
4.6504                 0.5958027       -164.3577        0.4205212       -13.55898          0.42052       -13.55898        0.5958037       -164.3577
4.6518                 0.5939845       -165.0826        0.4230109       -13.96089        0.4230099       -13.96088        0.5939857       -165.0826
4.6532                 0.5919857       -165.8109        0.4257126       -14.38072        0.4257116       -14.38071         0.591987        -165.811
4.6546                 0.5898082       -166.5425        0.4286209       -14.82177        0.4286198       -14.82175        0.5898096       -166.5425
4.656                  0.5874539       -167.2769        0.4317274       -15.28712        0.4317264        -15.2871        0.5874556        -167.277
4.6574                 0.5849255       -168.0141        0.4350212       -15.77963        0.4350202       -15.77959        0.5849274       -168.0142
4.6588                 0.5822249       -168.7538        0.4384888       -16.30183        0.4384878        -16.3018        0.5822269       -168.7539
4.6602                 0.5793542       -169.4959        0.4421143       -16.85599        0.4421134       -16.85595        0.5793564        -169.496
4.6616                 0.5763156       -170.2403          0.44588       -17.44399        0.4458792       -17.44395        0.5763178       -170.2404
4.663                  0.5731109       -170.9868        0.4497665       -18.06738        0.4497657       -18.06734        0.5731132       -170.9869
4.6644                 0.5697418       -171.7356         0.453753       -18.72736        0.4537522       -18.72731        0.5697443       -171.7357
4.6658                 0.5662101       -172.4865        0.4578175       -19.42476        0.4578167       -19.42471        0.5662126       -172.4866
4.6672                 0.5625171       -173.2395        0.4619374       -20.16009        0.4619367       -20.16005        0.5625196       -173.2397
4.6686                  0.558664       -173.9948        0.4660898       -20.93354        0.4660891        -20.9335        0.5586664        -173.995
4.67                   0.5546516       -174.7524        0.4702514       -21.74501        0.4702508       -21.74496        0.5546541       -174.7526
4.6714                 0.5504805       -175.5124        0.4743993       -22.59411        0.4743987       -22.59407        0.5504829       -175.5126
4.6728                 0.5461512       -176.2748        0.4785108       -23.48024        0.4785102       -23.48019        0.5461535        -176.275
4.6742                 0.5416634       -177.0398        0.4825639       -24.40257        0.4825633       -24.40253        0.5416656       -177.0401
4.6756                 0.5370171       -177.8077        0.4865373       -25.36012        0.4865367       -25.36008         0.537019       -177.8079
4.677                  0.5322113       -178.5783        0.4904108       -26.35173        0.4904102        -26.3517        0.5322132       -178.5786
4.6784                 0.5272452       -179.3521        0.4941653       -27.37615        0.4941647       -27.37612         0.527247       -179.3523
4.6798                 0.5221174         179.871        0.4977827       -28.43202        0.4977822         -28.432         0.522119        179.8707
4.6812                 0.5168262        179.0908        0.5012466       -29.51793         0.501246        -29.5179        0.5168275        179.0905
4.6826                 0.5113694         178.307        0.5045415       -30.63238         0.504541       -30.63235        0.5113706        178.3067
4.684                  0.5057448        177.5196        0.5076537       -31.77394        0.5076532       -31.77392        0.5057459        177.5194
4.6854                 0.4999496        176.7286        0.5105706       -32.94107        0.5105701       -32.94107        0.4999505        176.7283
4.6868                 0.4939807        175.9337        0.5132813       -34.13237        0.5132808       -34.13234        0.4939815        175.9334
4.6882                 0.4878349        175.1349        0.5157759        -35.3463        0.5157753       -35.34627        0.4878354        175.1347
4.6896                 0.4815085        174.3323        0.5180461       -36.58152        0.5180455       -36.58149        0.4815089        174.3321
4.691                  0.4749978        173.5259        0.5200847       -37.83665        0.5200841       -37.83662        0.4749981        173.5256
4.6924                 0.4682987        172.7157         0.521886       -39.11035        0.5218854       -39.11035        0.4682989        172.7155
4.6938                 0.4614072        171.9019         0.523445       -40.40148        0.5234444       -40.40145        0.4614073        171.9017
4.6952                  0.454319        171.0847        0.5247581       -41.70882        0.5247575       -41.70882        0.4543191        171.0845
4.6966                 0.4470299        170.2644        0.5258224        -43.0313        0.5258218        -43.0313          0.44703        170.2643
4.698                  0.4395356        169.4415         0.526636       -44.36791        0.5266353       -44.36789        0.4395357        169.4414
4.6994                  0.431832        168.6165        0.5271975        -45.7177        0.5271969       -45.71768        0.4318321        168.6164
4.7008                  0.423915        167.7899        0.5275066       -47.07984        0.5275059       -47.07981        0.4239152        167.7898
4.7022                  0.415781        166.9627         0.527563       -48.45349        0.5275623       -48.45346        0.4157812        166.9626
4.7036                 0.4074263        166.1356        0.5273672       -49.83799        0.5273666       -49.83796        0.4074266        166.1355
4.705                  0.3988479        165.3098          0.52692       -51.23264        0.5269194       -51.23261        0.3988483        165.3098
4.7064                  0.390043        164.4867        0.5262224       -52.63692        0.5262218        -52.6369        0.3900436        164.4867
4.7078                 0.3810096        163.6678        0.5252756       -54.05029         0.525275       -54.05026        0.3810103        163.6679
4.7092                 0.3717461         162.855         0.524081       -55.47222        0.5240803       -55.47219        0.3717471         162.855
4.7106                 0.3622519        162.0502        0.5226398       -56.90231        0.5226392       -56.90227         0.362253        162.0503
4.712                  0.3525269        161.2561        0.5209538       -58.34018        0.5209532       -58.34013        0.3525282        161.2561
4.7134                 0.3425722        160.4754        0.5190243       -59.78541        0.5190236       -59.78536        0.3425736        160.4755
4.7148                 0.3323897        159.7116        0.5168526        -61.2377         0.516852       -61.23764        0.3323913        159.7116
4.7162                 0.3219826        158.9685        0.5144401       -62.69667        0.5144395       -62.69661        0.3219843        158.9685
4.7176                 0.3113553        158.2506         0.511788       -64.16198        0.5117875       -64.16193        0.3113571        158.2506
4.719                  0.3005136        157.5634        0.5088978       -65.63332        0.5088972       -65.63326        0.3005156        157.5634
4.7204                  0.289465         156.913        0.5057705        -67.1103        0.5057699       -67.11025        0.2894671         156.913
4.7218                 0.2782186        156.3068        0.5024074       -68.59254         0.502407       -68.59248        0.2782208        156.3067
4.7232                 0.2667854        155.7535        0.4988099       -70.07963        0.4988095       -70.07957        0.2667878        155.7535
4.7246                 0.2551788        155.2637        0.4949794       -71.57112         0.494979       -71.57105        0.2551812        155.2636
4.726                  0.2434147        154.8497        0.4909174       -73.06651         0.490917       -73.06644        0.2434171        154.8496
4.7274                 0.2315117        154.5267        0.4866259       -74.56522        0.4866255       -74.56515        0.2315141        154.5265
4.7288                  0.219492        154.3129        0.4821068       -76.06665        0.4821065        -76.0666        0.2194945        154.3127
4.7302                 0.2073821         154.231        0.4773629       -77.57017        0.4773626       -77.57009        0.2073845        154.2308
4.7316                 0.1952134        154.3088        0.4723969       -79.07496        0.4723966       -79.07489        0.1952158        154.3085
4.733                  0.1830237         154.581        0.4672124       -80.58026        0.4672122       -80.58019         0.183026        154.5806
4.7344                  0.170859        155.0912        0.4618136       -82.08515        0.4618133       -82.08506        0.1708611        155.0907
4.7358                 0.1587759        155.8947        0.4562049       -83.58866        0.4562048       -83.58858        0.1587779        155.8941
4.7372                 0.1468454         157.062         0.450392       -85.08977        0.4503919       -85.08968        0.1468472        157.0613
4.7386                 0.1351578        158.6827        0.4443812       -86.58731         0.444381       -86.58724        0.1351594        158.6819
4.74                   0.1238297        160.8709        0.4381794       -88.08014        0.4381793       -88.08006         0.123831          160.87
4.7414                 0.1130139        163.7684        0.4317945       -89.56694        0.4317944       -89.56688         0.113015        163.7674
4.7428                 0.1029121        167.5453        0.4252355        -91.0464        0.4252354       -91.04633        0.1029129        167.5441
4.7442                0.09378828        172.3873         0.418512       -92.51709        0.4185119       -92.51702       0.09378871        172.3861
4.7456                 0.0859781        178.4591        0.4116347       -93.97754        0.4116346       -93.97749       0.08597818        178.4578
4.747                 0.07987981       -174.1739         0.404615       -95.42626         0.404615       -95.42621       0.07987952       -174.1752
4.7484                0.07590508       -165.6597        0.3974656       -96.86167        0.3974656       -96.86162       0.07590446       -165.6609
4.7498                0.07437803       -156.4438        0.3901995        -98.2822        0.3901996       -98.28214       0.07437714       -156.4448
4.7512                0.07541601       -147.2086         0.382831       -99.68622        0.3828311       -99.68616       0.07541495       -147.2094
4.7526                 0.0788742        -138.642        0.3753748       -101.0721        0.3753748       -101.0721       0.07887307       -138.6425
4.754                 0.08440268       -131.2017        0.3678462       -102.4383        0.3678462       -102.4383       0.08440158        -131.202
4.7554                0.09156774       -125.0465        0.3602613       -103.7832        0.3602614       -103.7832       0.09156674       -125.0466
4.7568                0.09995445       -120.1172        0.3526366       -105.1053        0.3526366       -105.1053       0.09995358       -120.1173
4.7582                 0.1092158       -116.2515        0.3449887       -106.4031        0.3449888       -106.4031        0.1092151       -116.2515
4.7596                 0.1190812       -113.2631        0.3373346       -107.6753        0.3373347       -107.6753        0.1190805       -113.2631
4.761                   0.129346       -110.9811        0.3296913       -108.9206        0.3296914       -108.9206        0.1293455       -110.9811
4.7624                 0.1398571        -109.262        0.3220757       -110.1379        0.3220758       -110.1379        0.1398568        -109.262
4.7638                 0.1504996       -107.9908        0.3145043       -111.3263        0.3145044       -111.3262        0.1504994       -107.9908
4.7652                 0.1611865       -107.0765        0.3069934        -112.485        0.3069934        -112.485        0.1611863       -107.0766
4.7666                 0.1718513       -106.4481        0.2995583       -113.6135        0.2995585       -113.6135        0.1718512       -106.4482
4.768                  0.1824429       -106.0494        0.2922141       -114.7116        0.2922142       -114.7115        0.1824429       -106.0495
4.7694                 0.1929217       -105.8362        0.2849745       -115.7792        0.2849746       -115.7792        0.1929217       -105.8364
4.7708                 0.2032572       -105.7736        0.2778522       -116.8166        0.2778523       -116.8166        0.2032572       -105.7738
4.7722                 0.2134258       -105.8332        0.2708587       -117.8245        0.2708588       -117.8245        0.2134259       -105.8334
4.7736                 0.2234098       -105.9924        0.2640041       -118.8038        0.2640042       -118.8037        0.2234098       -105.9926
4.775                  0.2331962       -106.2326        0.2572968       -119.7557         0.257297       -119.7556        0.2331961       -106.2329
4.7764                 0.2427758       -106.5389         0.250744       -120.6818        0.2507441       -120.6817        0.2427758       -106.5391
4.7778                 0.2521432       -106.8986        0.2443507        -121.584        0.2443508        -121.584        0.2521431       -106.8988
4.7792                 0.2612956       -107.3016        0.2381203       -122.4645        0.2381205       -122.4645        0.2612954       -107.3019
4.7806                 0.2702328       -107.7394        0.2320547       -123.3259        0.2320548       -123.3259        0.2702326       -107.7396
4.782                  0.2789568       -108.2049        0.2261535       -124.1708        0.2261537       -124.1708        0.2789565       -108.2051
4.7834                 0.2874715       -108.6922        0.2204152       -125.0023        0.2204153       -125.0023        0.2874712       -108.6925
4.7848                 0.2957824       -109.1967        0.2148361       -125.8233        0.2148362       -125.8233         0.295782        -109.197
4.7862                 0.3038961       -109.7143        0.2094113       -126.6371        0.2094114       -126.6371        0.3038958       -109.7146
4.7876                 0.3118207        -110.242        0.2041344       -127.4469        0.2041345       -127.4469        0.3118202       -110.2421
4.789                  0.3195645        -110.777        0.1989978       -128.2559         0.198998       -128.2559        0.3195641       -110.7772
4.7904                  0.327137       -111.3175         0.193993       -129.0672        0.1939932       -129.0672        0.3271366       -111.3176
4.7918                 0.3345477       -111.8619        0.1891106       -129.8838        0.1891107       -129.8838        0.3345472        -111.862
4.7932                 0.3418061       -112.4091        0.1843406       -130.7084        0.1843407       -130.7084        0.3418056       -112.4093
4.7946                 0.3489218       -112.9585        0.1796727       -131.5436        0.1796729       -131.5436        0.3489213       -112.9586
4.796                   0.355904       -113.5095        0.1750967       -132.3914        0.1750968       -132.3914        0.3559035       -113.5097
4.7974                 0.3627615       -114.0621        0.1706023       -133.2539        0.1706024       -133.2539         0.362761       -114.0623
4.7988                 0.3695023       -114.6163        0.1661796       -134.1324        0.1661797       -134.1324        0.3695019       -114.6164
4.8002                 0.3761335       -115.1723        0.1618195       -135.0282        0.1618196       -135.0282        0.3761332       -115.1724
4.8016                 0.3826615       -115.7305        0.1575134       -135.9419        0.1575135       -135.9419        0.3826613       -115.7306
4.803                  0.3890915       -116.2914        0.1532537        -136.874        0.1532538        -136.874        0.3890913       -116.2914
4.8044                 0.3954275       -116.8554         0.149034       -137.8244        0.1490341       -137.8244        0.3954274       -116.8555
4.8058                 0.4016724       -117.4232        0.1448488       -138.7928        0.1448488       -138.7928        0.4016724       -117.4233
4.8072                 0.4078277       -117.9953        0.1406939       -139.7785         0.140694       -139.7786        0.4078279       -117.9954
4.8086                 0.4138941       -118.5724        0.1365666       -140.7808        0.1365667       -140.7809        0.4138944       -118.5725
4.81                   0.4198708       -119.1549        0.1324653       -141.7984        0.1324653       -141.7985         0.419871        -119.155
4.8114                 0.4257557       -119.7433        0.1283897       -142.8302        0.1283897       -142.8302         0.425756       -119.7434
4.8128                 0.4315461       -120.3381        0.1243406       -143.8746        0.1243407       -143.8746        0.4315465       -120.3382
4.8142                  0.437238       -120.9394        0.1203204       -144.9304        0.1203204       -144.9304        0.4372385       -120.9395
4.8156                 0.4428268       -121.5476        0.1163322       -145.9962        0.1163323       -145.9962        0.4428275       -121.5477
4.817                  0.4483071       -122.1627        0.1123803       -147.0709        0.1123803        -147.071        0.4483078       -122.1628
4.8184                 0.4536729       -122.7846        0.1084697       -148.1537        0.1084697       -148.1538        0.4536737       -122.7848
4.8198                  0.458918       -123.4134        0.1046062       -149.2441        0.1046062       -149.2441        0.4589188       -123.4136
4.8212                 0.4640358       -124.0488        0.1007961        -150.342         0.100796       -150.3421        0.4640366       -124.0489
4.8226                 0.4690196       -124.6903         0.097046       -151.4484       0.09704597       -151.4485        0.4690204       -124.6905
4.824                   0.473863       -125.3377       0.09336286       -152.5648       0.09336282       -152.5648        0.4738638       -125.3379
4.8254                 0.4785596       -125.9903       0.08975344       -153.6937        0.0897534       -153.6937        0.4785604       -125.9905
4.8268                 0.4831037       -126.6476       0.08622441        -154.839       0.08622437       -154.8391        0.4831044       -126.6478
4.8282                 0.4874898        -127.309       0.08278203        -156.006       0.08278197       -156.0061        0.4874905       -127.3092
4.8296                 0.4917133       -127.9736       0.07943203       -157.2015       0.07943196       -157.2016         0.491714       -127.9738
4.831                  0.4957702       -128.6407        0.0761794       -158.4343       0.07617933       -158.4344        0.4957709       -128.6409
4.8324                 0.4996576       -129.3096       0.07302835       -159.7151       0.07302828       -159.7152         0.499658       -129.3098
4.8338                 0.5033731       -129.9794       0.06998226       -161.0569       0.06998217        -161.057        0.5033736       -129.9796
4.8352                 0.5069157       -130.6492       0.06704353       -162.4753       0.06704345       -162.4753        0.5069161       -130.6495
4.8366                 0.5102852       -131.3184        0.0642138       -163.9883       0.06421372       -163.9883        0.5102856       -131.3187
4.838                  0.5134825       -131.9862       0.06149394       -165.6167       0.06149386       -165.6168        0.5134827       -131.9864
4.8394                 0.5165093       -132.6517       0.05888439       -167.3845       0.05888431       -167.3846        0.5165094        -132.652
4.8408                 0.5193683       -133.3144       0.05638539       -169.3183       0.05638531       -169.3184        0.5193685       -133.3147
4.8422                 0.5220635       -133.9737       0.05399748       -171.4479       0.05399739        -171.448        0.5220636       -133.9739
4.8436                 0.5245991        -134.629       0.05172201       -173.8059       0.05172193        -173.806        0.5245991       -134.6292
4.845                  0.5269805       -135.2799       0.04956184       -176.4277       0.04956176       -176.4278        0.5269804       -135.2801
4.8464                 0.5292133       -135.9261       0.04752207       -179.3509       0.04752198        -179.351        0.5292132       -135.9263
4.8478                 0.5313039       -136.5673       0.04561088        177.3856        0.0456108        177.3855        0.5313036       -136.5675
4.8492                 0.5332587       -137.2035       0.04384043        173.7428       0.04384036        173.7427        0.5332584       -137.2037
4.8506                 0.5350844       -137.8346       0.04222766        169.6841       0.04222759        169.6841        0.5350841       -137.8348
4.852                  0.5367877       -138.4608       0.04079488        165.1788       0.04079481        165.1788        0.5367874       -138.4609
4.8534                 0.5383749       -139.0822       0.03957003        160.2068       0.03956996        160.2068        0.5383746       -139.0824
4.8548                 0.5398522       -139.6993       0.03858628        154.7644       0.03858622        154.7644        0.5398519       -139.6995
4.8562                 0.5412249       -140.3125       0.03788075        148.8709        0.0378807        148.8708        0.5412246       -140.3126
4.8576                 0.5424976       -140.9223       0.03749209        142.5738       0.03749203        142.5737        0.5424974       -140.9224
4.859                  0.5436743       -141.5293       0.03745717        135.9507       0.03745712        135.9506        0.5436741       -141.5295
4.8604                 0.5447576       -142.1343       0.03780715        129.1058        0.0378071        129.1058        0.5447575       -142.1345
4.8618                 0.5457491       -142.7381       0.03856384        122.1602       0.03856379        122.1602         0.545749       -142.7382
4.8632                  0.546649       -143.3413       0.03973722        115.2374       0.03973718        115.2374        0.5466489       -143.3414
4.8646                  0.547456       -143.9448       0.04132478         108.449       0.04132475        108.4489        0.5474561       -143.9449
4.866                  0.5481677       -144.5494        0.0433126        101.8829       0.04331258        101.8829        0.5481678       -144.5495
4.8674                 0.5487799        -145.156       0.04567774        95.59891       0.04567771        95.59887        0.5487802       -145.1561
4.8688                 0.5492873       -145.7653       0.04839109        89.62868       0.04839107        89.62864        0.5492876       -145.7654
4.8702                 0.5496826       -146.3779        0.0514201        83.98071       0.05142009        83.98069         0.549683        -146.378
4.8716                 0.5499577       -146.9945       0.05473086        78.64656       0.05473084        78.64654        0.5499582       -146.9946