! TOUCHSTONE file generated by CST MICROWAVE STUDIO
! Date and time: Sat Nov 30 13:11:58 2024
! Project name: test_tuning.cst
! Parameters = {airCoaxOuterDiameter=3; chamferAngle=45; chamferWidth=24; connectorLength=10; drillingHoleDiameter=4.1; feedLength=60; flareDiameter=130; flareLength=70; gratingDistance=0; gratingGap=1.90274; outletLength=30; polarizerLength=134; probe1Diameter=1.3; probe1Distance=14; probe1Length=8; probe2Diameter=1.3; probe2Distance=0; probe2Length=8; probeLength=8; smaInnerDiameter=1.3; smaOuterDiameter=4.1; transitionCoefficient=1.33; waveguideFeedLength=30; waveguideSide=50; waveguideThickness=3; wireCount=25; wireDiameter=1.17699}
! Header version: 2024
! Port assignment regex: !\s*Touchstone port\s*([0-9]+)\s*=\s*(CST MWS port|CST DES external port|CST DES block port)\s*(.+)\s* \(\"(.*)\"\)(\s*mode\s*([0-9]+))?.*
! Touchstone port assignment:
! Touchstone port 1 = CST MWS port 1 ("Input1")
! Touchstone port 2 = CST MWS port 2 ("Input2")
# GHz S MA R 50
4.6                    0.8119665        129.4423        0.2416881       -161.5543        0.2416878       -161.5542        0.8119661        129.4424
4.6014                 0.8138732        129.0191        0.2452827       -160.8055        0.2452824       -160.8055        0.8138731        129.0192
4.6028                 0.8157857        128.4439        0.2509939       -159.9196        0.2509937       -159.9195        0.8157858        128.4439
4.6042                  0.817236        127.7071        0.2591523       -159.0305         0.259152       -159.0304        0.8172362        127.7071
4.6056                 0.8177336        126.8051        0.2699608       -158.2791        0.2699604        -158.279         0.817734        126.8052
4.607                  0.8167844        125.7399        0.2834795       -157.7932        0.2834792       -157.7932        0.8167848          125.74
4.6084                 0.8139062        124.5181        0.2996312       -157.6727        0.2996307       -157.6727        0.8139067        124.5182
4.6098                 0.8086427        123.1506        0.3182232       -157.9818        0.3182227       -157.9817        0.8086434        123.1507
4.6112                 0.8005754        121.6521        0.3389778       -158.7503        0.3389774       -158.7503        0.8005763        121.6521
4.6126                 0.7893329        120.0406        0.3615613         -159.98        0.3615608         -159.98        0.7893338        120.0407
4.614                  0.7745981        118.3379        0.3856084       -161.6525        0.3856079       -161.6525        0.7745992         118.338
4.6154                 0.7561174        116.5693        0.4107399       -163.7373        0.4107394       -163.7373        0.7561186        116.5694
4.6168                 0.7337059        114.7646        0.4365741       -166.1978        0.4365736       -166.1977        0.7337071        114.7647
4.6182                 0.7072554        112.9595        0.4627339       -168.9953        0.4627333       -168.9952        0.7072567        112.9596
4.6196                 0.6767419        111.1974        0.4888509       -172.0922        0.4888504       -172.0921        0.6767433        111.1975
4.621                  0.6422356        109.5323        0.5145688       -175.4527        0.5145683       -175.4526         0.642237        109.5324
4.6224                 0.6039123        108.0338        0.5395453       -179.0437        0.5395447       -179.0437        0.6039138        108.0339
4.6238                 0.5620719        106.7938        0.5634543        177.1646        0.5634539        177.1647        0.5620734        106.7939
4.6252                 0.5171642        105.9377        0.5859897        173.1998        0.5859892        173.1999        0.5171658        105.9378
4.6266                 0.4698332        105.6417        0.6068668        169.0867        0.6068664        169.0868        0.4698348        105.6418
4.628                  0.4209915          106.16        0.6258268         164.848        0.6258264        164.8481        0.4209932          106.16
4.6294                 0.3719523        107.8645        0.6426396        160.5045        0.6426394        160.5046        0.3719541        107.8646
4.6308                 0.3246598        111.2934        0.6571069        156.0753        0.6571066        156.0754        0.3246616        111.2935
4.6322                 0.2820564        117.1645         0.669065        151.5782        0.6690648        151.5783        0.2820583        117.1646
4.6336                 0.2484862        126.1876        0.6783871        147.0296        0.6783869        147.0297        0.2484882        126.1875
4.635                  0.2294728        138.3586         0.684984        142.4451        0.6849837        142.4451        0.2294746        138.3585
4.6364                 0.2295482        151.9834        0.6888052        137.8388        0.6888052        137.8389        0.2295499        151.9831
4.6378                 0.2488959        164.2437        0.6898382        133.2246        0.6898381        133.2247        0.2488973        164.2434
4.6392                 0.2832481        173.3892         0.688106        128.6152         0.688106        128.6153        0.2832491        173.3889
4.6406                 0.3271875        179.3757        0.6836662        124.0228        0.6836663        124.0229        0.3271883        179.3754
4.642                   0.376403       -177.0971        0.6766073        119.4591        0.6766074        119.4592        0.3764035       -177.0974
4.6434                 0.4279707       -175.3102        0.6670453        114.9353        0.6670455        114.9354         0.427971       -175.3105
4.6448                 0.4799647       -174.7233        0.6551204        110.4626        0.6551207        110.4627        0.4799649       -174.7236
4.6462                 0.5310879        -174.964        0.6409935        106.0519        0.6409938         106.052         0.531088       -174.9643
4.6476                 0.5804354       -175.7797        0.6248422        101.7143        0.6248426        101.7145        0.5804354       -175.7799
4.649                  0.6273582       -176.9967        0.6068585        97.46152        0.6068588        97.46162        0.6273582       -176.9969
4.6504                  0.671384       -178.4933        0.5872454        93.30558        0.5872458        93.30569         0.671384       -178.4935
4.6518                 0.7121711        179.8184        0.5662154        89.25965        0.5662158        89.25974         0.712171        179.8182
4.6532                 0.7494797        178.0034         0.543988        85.33804        0.5439885        85.33812        0.7494796        178.0032
4.6546                  0.783155        176.1114        0.5207892        81.55658        0.5207898        81.55668        0.7831548        176.1112
4.656                  0.8131143        174.1812        0.4968504        77.93299         0.496851        77.93308        0.8131141         174.181
4.6574                 0.8393399        172.2441        0.4724076        74.48704        0.4724082        74.48713        0.8393397         172.244
4.6588                 0.8618727         170.326        0.4477016         71.2409        0.4477021        71.24099        0.8618725        170.3259
4.6602                 0.8808085        168.4489        0.4229777         68.2191        0.4229782        68.21918        0.8808083        168.4488
4.6616                 0.8962939        166.6314        0.3984851        65.44854        0.3984856        65.44859        0.8962937        166.6313
4.663                  0.9085236          164.89        0.3744763        62.95788        0.3744769        62.95794        0.9085235        164.8899
4.6644                 0.9177368         163.239        0.3512059        60.77667        0.3512065        60.77672        0.9177366        163.2389
4.6658                 0.9242132        161.6908        0.3289269        58.93357        0.3289274        58.93362        0.9242131        161.6907
4.6672                 0.9282684        160.2556         0.307887        57.45367        0.3078875         57.4537        0.9282683        160.2555
4.6686                 0.9302481        158.9418         0.288321        56.35464        0.2883215        56.35465        0.9302481        158.9417
4.67                     0.93052         157.755        0.2704409        55.64193        0.2704413        55.64194        0.9305199        157.7549
4.6714                 0.9294658        156.6984        0.2544223        55.30347        0.2544227        55.30347        0.9294658        156.6983
4.6728                   0.92747        155.7721        0.2403892        55.30479        0.2403895        55.30478          0.92747         155.772
4.6742                 0.9249086        154.9727        0.2283972        55.58675        0.2283975        55.58674        0.9249087        154.9726
4.6756                 0.9221365        154.2936        0.2184215        56.06712        0.2184217         56.0671        0.9221365        154.2936
4.677                  0.9194748        153.7248        0.2103504         56.6473        0.2103506        56.64727         0.919475        153.7248
4.6784                 0.9171995        153.2532          0.20399        57.22324        0.2039901        57.22321        0.9171997        153.2531
4.6798                 0.9155307         152.863        0.1990801         57.6981        0.1990802        57.69807         0.915531        152.8629
4.6812                 0.9146267        152.5367        0.1953175        57.99302        0.1953176        57.99299        0.9146269        152.5366
4.6826                 0.9145791         152.256        0.1923831        58.05368        0.1923831        58.05366        0.9145793        152.2559
4.684                  0.9154134        152.0026        0.1899667        57.85189        0.1899667        57.85188        0.9154136        152.0025
4.6854                 0.9170937        151.7594        0.1877863        57.38311        0.1877863         57.3831        0.9170938        151.7593
4.6868                 0.9195295        151.5114        0.1856013        56.66173        0.1856013        56.66173        0.9195297        151.5113
4.6882                  0.922587        151.2461        0.1832178        55.71598        0.1832178        55.71598        0.9225871        151.2461
4.6896                 0.9261001        150.9545        0.1804909        54.58317        0.1804908        54.58318        0.9261002        150.9544
4.691                  0.9298842        150.6305        0.1773222        53.30614        0.1773222        53.30615        0.9298844        150.6304
4.6924                 0.9337481        150.2716        0.1736566        51.93079        0.1736567         51.9308        0.9337484        150.2715
4.6938                 0.9375062         149.878        0.1694779        50.50442        0.1694779        50.50443        0.9375064        149.8779
4.6952                 0.9409874        149.4527        0.1648035        49.07488        0.1648035        49.07489        0.9409876        149.4526
4.6966                 0.9440445        149.0008        0.1596807        47.68996        0.1596807        47.68997        0.9440446        149.0008
4.698                  0.9465592        148.5292        0.1541819          46.397         0.154182        46.39702        0.9465594        148.5291
4.6994                 0.9484474        148.0456         0.148401         45.2423         0.148401        45.24231        0.9484473        148.0455
4.7008                 0.9496596        147.5585        0.1424492        44.27012        0.1424492        44.27013        0.9496598        147.5585
4.7022                 0.9501835        147.0768        0.1364508        43.52109        0.1364508         43.5211        0.9501835        147.0767
4.7036                 0.9500408        146.6086        0.1305392        43.02979        0.1305392         43.0298        0.9500408        146.6085
4.705                  0.9492855        146.1619        0.1248509        42.82122        0.1248509        42.82124        0.9492857        146.1619
4.7064                 0.9480004        145.7434        0.1195192        42.90669        0.1195192         42.9067        0.9480005        145.7433
4.7078                   0.94629        145.3583        0.1146663        43.27918        0.1146663        43.27919          0.94629        145.3582
4.7092                  0.944276        145.0106        0.1103941        43.90971        0.1103941        43.90972        0.9442762        145.0106
4.7106                 0.9420904        144.7024        0.1067753         44.7459        0.1067753        44.74593        0.9420905        144.7023
4.712                  0.9398675        144.4338        0.1038454        45.71429        0.1038454        45.71431        0.9398677        144.4337
4.7134                 0.9377372        144.2033        0.1015981        46.72704        0.1015981        46.72704        0.9377373        144.2032
4.7148                 0.9358181        144.0076       0.09998531        47.69191        0.0999853        47.69194        0.9358182        144.0075
4.7162                 0.9342105        143.8416       0.09892207        48.52367       0.09892206         48.5237        0.9342106        143.8416
4.7176                 0.9329929        143.6994       0.09829622        49.15335       0.09829621        49.15338         0.932993        143.6994
4.719                   0.932217         143.574       0.09797987        49.53419       0.09797987        49.53422        0.9322171        143.5739
4.7204                 0.9319061        143.4578       0.09784111        49.64276       0.09784111        49.64278        0.9319063        143.4578
4.7218                 0.9320556        143.3436       0.09775384        49.47697       0.09775385        49.47705        0.9320557        143.3436
4.7232                 0.9326333        143.2245       0.09760522        49.05218       0.09760523        49.05221        0.9326335        143.2244
4.7246                 0.9335841        143.0942       0.09730023        48.39627       0.09730026        48.39633        0.9335842        143.0942
4.726                  0.9348327         142.948       0.09676414        47.54602       0.09676417        47.54604         0.934833        142.9479
4.7274                 0.9362907        142.7822       0.09594328        46.54336       0.09594332        46.54339         0.936291        142.7822
4.7288                 0.9378605        142.5948       0.09480462        45.43341       0.09480466        45.43346        0.9378607        142.5948
4.7302                 0.9394426        142.3853        0.0933348        44.26284       0.09333485        44.26286        0.9394429        142.3852
4.7316                 0.9409408        142.1545       0.09153873        43.07884       0.09153878        43.07886        0.9409411        142.1544
4.733                  0.9422676        141.9046       0.08943802        41.92877       0.08943807         41.9288         0.942268        141.9045
4.7344                 0.9433482        141.6389       0.08706933         40.8594       0.08706939        40.85942        0.9433486        141.6388
4.7358                  0.944124        141.3615       0.08448269        39.91633       0.08448274        39.91636        0.9441242        141.3614
4.7372                 0.9445549        141.0771       0.08173951        39.14308       0.08173957         39.1431         0.944555         141.077
4.7386                 0.9446213        140.7907       0.07891062         38.5792       0.07891067         38.5792        0.9446215        140.7906
4.74                   0.9443237        140.5074       0.07607359        38.25796       0.07607364        38.25799        0.9443238        140.5074
4.7414                 0.9436822        140.2321       0.07330963          38.203       0.07330968        38.20303        0.9436822         140.232
4.7428                 0.9427344         139.969       0.07069965        38.42418       0.07069971        38.42418        0.9427345         139.969
4.7442                 0.9415335        139.7219       0.06831944        38.91343       0.06831948        38.91342        0.9415336        139.7218
4.7456                 0.9401446        139.4935       0.06623413        39.64143       0.06623417        39.64146        0.9401447        139.4934
4.747                   0.938641        139.2857       0.06449253         40.5567       0.06449258         40.5567        0.9386411        139.2856
4.7484                 0.9370994         139.099       0.06312217        41.58785        0.0631222        41.58785        0.9370992         139.099
4.7498                 0.9355964        138.9332       0.06212598        42.65032       0.06212602        42.65032        0.9355963        138.9331
4.7512                 0.9342038        138.7867       0.06148194        43.65604       0.06148198        43.65604        0.9342038        138.7866
4.7526                 0.9329846         138.657       0.06114549         44.5237       0.06114553        44.52372        0.9329846         138.657
4.754                    0.93199        138.5409       0.06105469         45.1879       0.06105473        45.18792        0.9319897        138.5408
4.7554                 0.9312556        138.4344       0.06113672        45.60422       0.06113676        45.60425        0.9312553        138.4343
4.7568                 0.9308018        138.3332        0.0613147        45.75047       0.06131474         45.7505        0.9308015        138.3332
4.7582                  0.930631        138.2329       0.06151366        45.62496        0.0615137        45.62496        0.9306306        138.2329
4.7596                 0.9307294        138.1293       0.06166514        45.24245        0.0616652        45.24245        0.9307291        138.1293
4.761                  0.9310677        138.0185       0.06171032        44.63017       0.06171037        44.63017        0.9310674        138.0185
4.7624                 0.9316034        137.8973       0.06160183        43.82377       0.06160189        43.82377        0.9316031        137.8973
4.7638                 0.9322837        137.7631       0.06130467         42.8643       0.06130473        42.86429        0.9322832        137.7631
4.7652                 0.9330486        137.6144        0.0607963        41.79595       0.06079636        41.79594        0.9330484        137.6143
4.7666                 0.9338359        137.4504       0.06006631         40.6646       0.06006637        40.66458        0.9338353        137.4504
4.768                  0.9345823        137.2715       0.05911593        39.51694       0.05911598        39.51691        0.9345819        137.2715
4.7694                 0.9352293        137.0788        0.0579572        38.39979       0.05795725        38.39975         0.935229        137.0787
4.7708                 0.9357253        136.8741       0.05661223        37.35958       0.05661228        37.35955         0.935725        136.8741
4.7722                 0.9360282        136.6602       0.05511218        36.44174       0.05511223        36.44169         0.936028        136.6601
4.7736                 0.9361071        136.4399       0.05349627        35.68949       0.05349631        35.68945        0.9361069        136.4398
4.775                  0.9359444        136.2166       0.05181039        35.14227       0.05181043        35.14222        0.9359442        136.2165
4.7764                  0.935536        135.9937       0.05010563        34.83314       0.05010566        34.83307        0.9355359        135.9936
4.7778                 0.9348909        135.7745       0.04843612        34.78538       0.04843615        34.78531        0.9348907        135.7745
4.7792                 0.9340306        135.5623       0.04685647        35.00848       0.04685649        35.00841        0.9340307        135.5622
4.7806                 0.9329878        135.3595       0.04541849        35.49379       0.04541849        35.49372        0.9329879        135.3595
4.782                   0.931804        135.1685       0.04416739        36.21122       0.04416739        36.21114        0.9318042        135.1684
4.7834                 0.9305277        134.9905       0.04313786        37.10823       0.04313785        37.10816        0.9305276        134.9905
4.7848                 0.9292099        134.8264        0.0423505        38.11238       0.04235048        38.11232          0.92921        134.8264
4.7862                 0.9279033         134.676       0.04180941        39.13804       0.04180939        39.13798        0.9279034         134.676
4.7876                 0.9266583        134.5386       0.04150172        40.09605       0.04150169        40.09599        0.9266583        134.5385
4.789                  0.9255193        134.4125         0.041399        40.90436       0.04139898        40.90431        0.9255195        134.4124
4.7904                 0.9245241        134.2957       0.04146065        41.49688       0.04146061        41.49685        0.9245243        134.2956
4.7918                    0.9237        134.1855       0.04163814         41.8287       0.04163811        41.82867        0.9237002        134.1854
4.7932                 0.9230636        134.0789       0.04187971        41.87725       0.04187968        41.87722        0.9230636        134.0789
4.7946                 0.9226193        133.9729       0.04213433        41.64031        0.0421343        41.64028        0.9226195        133.9729
4.796                  0.9223603        133.8645       0.04235491        41.13217       0.04235488        41.13215        0.9223603        133.8645
4.7974                 0.9222675        133.7507       0.04250054        40.37933       0.04250051        40.37932        0.9222677        133.7507
4.7988                 0.9223128        133.6291        0.0425378        39.41659       0.04253777        39.41658        0.9223129        133.6291
4.8002                 0.9224592        133.4979       0.04244143        38.28397        0.0424414        38.28396        0.9224594        133.4978
4.8016                 0.9226644        133.3555       0.04219455        37.02442       0.04219452        37.02442        0.9226648        133.3555
4.803                  0.9228827        133.2014       0.04178851        35.68249       0.04178848        35.68249        0.9228831        133.2014
4.8044                 0.9230672        133.0356       0.04122256        34.30336       0.04122254        34.30336        0.9230676        133.0356
4.8058                 0.9231737        132.8588       0.04050348        32.93227       0.04050346        32.93227        0.9231741        132.8588
4.8072                 0.9231616        132.6723       0.03964501        31.61409       0.03964498         31.6141         0.923162        132.6722
4.8086                 0.9229971        132.4778       0.03866727        30.39278       0.03866725        30.39278        0.9229976        132.4778
4.81                   0.9226546        132.2776       0.03759614        29.31042       0.03759612        29.31043         0.922655        132.2776
4.8114                 0.9221175        132.0743        0.0364624         28.4058       0.03646238        28.40581         0.922118        132.0743
4.8128                 0.9213798        131.8704       0.03530075        27.71221       0.03530074        27.71222        0.9213804        131.8704
4.8142                 0.9204453        131.6687       0.03414856        27.25431       0.03414854        27.25433        0.9204458        131.6686
4.8156                 0.9193274        131.4715       0.03304411        27.04428        0.0330441         27.0443        0.9193281        131.4714
4.817                  0.9180488         131.281       0.03202461        27.07757       0.03202459         27.0776        0.9180494         131.281
4.8184                 0.9166393        131.0992       0.03112357        27.32914       0.03112356        27.32917          0.91664        131.0992
4.8198                 0.9151344        130.9273       0.03036821        27.75154        0.0303682        27.75158        0.9151349        130.9272
4.8212                 0.9135729        130.7659       0.02977674        28.27613       0.02977674        28.27617        0.9135734        130.7659
4.8226                  0.911995        130.6154       0.02935648         28.8183       0.02935648        28.81834        0.9119955        130.6153
4.824                  0.9104396        130.4751       0.02910296        29.28617       0.02910296        29.28621        0.9104401         130.475
4.8254                 0.9089422         130.344       0.02900052        29.59098       0.02900054        29.59102        0.9089427         130.344
4.8268                 0.9075327        130.2206       0.02902416        29.65659       0.02902417        29.65662        0.9075332        130.2205
4.8282                 0.9062336        130.1028       0.02914233        29.42589       0.02914235        29.42591        0.9062341        130.1027
4.8296                 0.9050588        129.9883       0.02932012         28.8632       0.02932014        28.86322        0.9050592        129.9882
4.831                  0.9040127        129.8747       0.02952215        27.95319       0.02952217        27.95321        0.9040131        129.8746
4.8324                 0.9030899        129.7595       0.02971501        26.69743       0.02971504        26.69743        0.9030902        129.7595
4.8338                 0.9022756        129.6405       0.02986899        25.11005       0.02986901        25.11004        0.9022759        129.6404
4.8352                 0.9015465        129.5155        0.0299591        23.21359       0.02995913        23.21358        0.9015467        129.5155
4.8366                  0.900872         129.383       0.02996575        21.03546       0.02996577        21.03544        0.9008722         129.383
4.838                  0.9002162        129.2419        0.0298748        18.60531       0.02987482        18.60528        0.9002164        129.2418
4.8394                 0.8995396        129.0915       0.02967753        15.95318       0.02967755        15.95314        0.8995398        129.0915
4.8408                 0.8988019        128.9321       0.02937038        13.10832        0.0293704        13.10828         0.898802         128.932
4.8422                 0.8979635        128.7642       0.02895455        10.09852       0.02895457        10.09847        0.8979636        128.7641
4.8436                 0.8969885        128.5891        0.0284356        6.949668       0.02843562        6.949609        0.8969886        128.5891
4.845                  0.8958461        128.4086       0.02782295        3.685521       0.02782296        3.685456        0.8958462        128.4086
4.8464                 0.8945126        128.2249       0.02712943       0.3275203       0.02712943       0.3274501        0.8945128        128.2249
4.8478                 0.8929729        128.0405       0.02637074       -3.105434       0.02637074       -3.105509         0.892973        128.0405
4.8492                  0.891221        127.8582       0.02556495       -6.597307       0.02556495       -6.597385        0.8912211        127.8582
4.8506                 0.8892604        127.6806         0.024732       -10.13541         0.024732       -10.13549        0.8892606        127.6806
4.852                   0.887105        127.5106       0.02389313       -13.71103       0.02389312       -13.71111        0.8871054        127.5105
4.8534                 0.8847772        127.3505       0.02307036       -17.32028       0.02307035       -17.32037        0.8847775        127.3505
4.8548                 0.8823076        127.2025       0.02228594       -20.96496       0.02228593       -20.96504        0.8823078        127.2025
4.8562                 0.8797332        127.0683       0.02156184       -24.65338       0.02156182       -24.65346        0.8797336        127.0682
4.8576                  0.877096        126.9489       0.02091921       -28.40088       0.02091919       -28.40094        0.8770964        126.9489
4.859                  0.8744404        126.8449       0.02037795       -32.22964       0.02037793        -32.2297        0.8744409        126.8448
4.8604                 0.8718108         126.756       0.01995632       -36.16759        0.0199563       -36.16765        0.8718112         126.756
4.8618                 0.8692494        126.6814       0.01967069       -40.24605       0.01967067        -40.2461        0.8692499        126.6814
4.8632                 0.8667943        126.6196       0.01953538       -44.49619       0.01953536       -44.49622        0.8667948        126.6196
4.8646                 0.8644763        126.5686       0.01956266       -48.94484       0.01956265       -48.94487        0.8644769        126.5686
4.866                  0.8623182        126.5258       0.01976279       -53.61032       0.01976278       -53.61035        0.8623187        126.5257
4.8674                 0.8603326        126.4883       0.02014408       -58.49923       0.02014407       -58.49925        0.8603333        126.4883
4.8688                 0.8585217        126.4533       0.02071292       -63.60508       0.02071291       -63.60508        0.8585222        126.4532
4.8702                 0.8568763        126.4177       0.02147371       -68.90894        0.0214737       -68.90892        0.8568768        126.4176
4.8716                 0.8553769        126.3786       0.02242867       -74.38205       0.02242867       -74.38203        0.8553775        126.3786