! TOUCHSTONE file generated by CST MICROWAVE STUDIO
! Date and time: Sat Nov 30 13:12:03 2024
! Project name: test_tuning.cst
! Parameters = {airCoaxOuterDiameter=3; chamferAngle=45; chamferWidth=24; connectorLength=10; drillingHoleDiameter=4.1; feedLength=60; flareDiameter=130; flareLength=70; gratingDistance=0; gratingGap=1.90274; outletLength=30; polarizerLength=134; probe1Diameter=1.3; probe1Distance=14; probe1Length=15; probe2Diameter=1.3; probe2Distance=0; probe2Length=15; probeLength=15; smaInnerDiameter=1.3; smaOuterDiameter=4.1; transitionCoefficient=1.33; waveguideFeedLength=30; waveguideSide=50; waveguideThickness=3; wireCount=25; wireDiameter=1.17699}
! Header version: 2024
! Port assignment regex: !\s*Touchstone port\s*([0-9]+)\s*=\s*(CST MWS port|CST DES external port|CST DES block port)\s*(.+)\s* \(\"(.*)\"\)(\s*mode\s*([0-9]+))?.*
! Touchstone port assignment:
! Touchstone port 1 = CST MWS port 1 ("Input1")
! Touchstone port 2 = CST MWS port 2 ("Input2")
# GHz S MA R 50
4.6                    0.4993093       -142.4698        0.4256454         12.0197        0.4256455        12.01959        0.4993106       -142.4699
4.6014                 0.5012524        -142.807        0.4275379        11.50145         0.427538        11.50134        0.5012537       -142.8071
4.6028                 0.5032658       -143.1587        0.4293914        10.96555        0.4293915        10.96544        0.5032672       -143.1588
4.6042                 0.5053417       -143.5257        0.4311898        10.41285        0.4311898        10.41274         0.505343       -143.5258
4.6056                 0.5074715        -143.909        0.4329176         9.84446        0.4329177        9.844351        0.5074727       -143.9092
4.607                  0.5096457       -144.3094        0.4345606        9.261765        0.4345606        9.261659        0.5096469       -144.3095
4.6084                 0.5118546       -144.7274        0.4361058        8.666389        0.4361058        8.666288        0.5118556       -144.7275
4.6098                 0.5140876       -145.1635        0.4375421        8.060158        0.4375419        8.060061        0.5140887       -145.1636
4.6112                 0.5163341       -145.6182        0.4388599        7.445077        0.4388598        7.444981        0.5163351       -145.6183
4.6126                 0.5185831       -146.0918        0.4400523        6.823284        0.4400521        6.823193        0.5185841       -146.0919
4.614                  0.5208236       -146.5844        0.4411142        6.197025        0.4411141        6.196938        0.5208246       -146.5844
4.6154                 0.5230445       -147.0961        0.4420433        5.568613        0.4420431         5.56853        0.5230455       -147.0962
4.6168                 0.5252345       -147.6269        0.4428395        4.940389        0.4428393        4.940312        0.5252355        -147.627
4.6182                  0.527383       -148.1767        0.4435054        4.314685        0.4435052        4.314613         0.527384       -148.1768
4.6196                 0.5294791       -148.7454        0.4440462        3.693788         0.444046         3.69372        0.5294801       -148.7455
4.621                  0.5315125       -149.3328        0.4444697        3.079898        0.4444694        3.079834        0.5315135       -149.3329
4.6224                  0.533473       -149.9386        0.4447859        2.475087        0.4447857        2.475029         0.533474       -149.9387
4.6238                 0.5353508       -150.5623        0.4450075        1.881267        0.4450072        1.881214        0.5353518       -150.5624
4.6252                 0.5371367       -151.2037        0.4451492        1.300146         0.445149        1.300098        0.5371378       -151.2038
4.6266                 0.5388215       -151.8624        0.4452277       0.7331943        0.4452275       0.7331519        0.5388226       -151.8625
4.628                  0.5403969       -152.5379        0.4452617       0.1816074        0.4452614         0.18157        0.5403979        -152.538
4.6294                 0.5418545       -153.2298         0.445271      -0.3537278        0.4452707      -0.3537603        0.5418556       -153.2299
4.6308                 0.5431869       -153.9376        0.4452769      -0.8722589        0.4452766      -0.8722866         0.543188       -153.9377
4.6322                 0.5443866       -154.6607        0.4453014       -1.373797        0.4453011        -1.37382        0.5443876       -154.6609
4.6336                 0.5454468       -155.3989         0.445367       -1.858534        0.4453667       -1.858552        0.5454479        -155.399
4.635                   0.546361       -156.1515        0.4454964       -2.327055        0.4454961        -2.32707         0.546362       -156.1516
4.6364                 0.5471232        -156.918        0.4457117       -2.780349        0.4457114        -2.78036        0.5471242       -156.9181
4.6378                 0.5477276        -157.698        0.4460344       -3.219799        0.4460342       -3.219807        0.5477285       -157.6981
4.6392                 0.5481688        -158.491         0.446485       -3.647171        0.4464849       -3.647176        0.5481698       -158.4911
4.6406                 0.5484419       -159.2965        0.4470823       -4.064597        0.4470821       -4.064599        0.5484428       -159.2967
4.642                  0.5485422       -160.1141        0.4478431       -4.474537        0.4478429       -4.474537        0.5485431       -160.1142
4.6434                 0.5484653       -160.9432         0.448782       -4.879741        0.4487819       -4.879739        0.5484661       -160.9433
4.6448                 0.5482073       -161.7834        0.4499112       -5.283198        0.4499111       -5.283196         0.548208       -161.7835
4.6462                 0.5477643       -162.6342        0.4512399       -5.688082        0.4512398       -5.688079        0.5477651       -162.6343
4.6476                 0.5471332       -163.4951        0.4527743       -6.097688        0.4527743       -6.097684        0.5471339       -163.4953
4.649                  0.5463108       -164.3657        0.4545177       -6.515364        0.4545177        -6.51536        0.5463115       -164.3659
4.6504                 0.5452943       -165.2456        0.4564699       -6.944454        0.4564699        -6.94445         0.545295       -165.2457
4.6518                 0.5440816       -166.1342        0.4586279       -7.388223        0.4586279        -7.38822        0.5440821       -166.1343
4.6532                 0.5426705       -167.0311        0.4609854       -7.849806        0.4609854       -7.849804         0.542671       -167.0313
4.6546                 0.5410593       -167.9358        0.4635333       -8.332144        0.4635333        -8.33214        0.5410599        -167.936
4.656                  0.5392469       -168.8479        0.4662595        -8.83794        0.4662595       -8.837938        0.5392475       -168.8481
4.6574                 0.5372326       -169.7669        0.4691497       -9.369623        0.4691498       -9.369622        0.5372331       -169.7671
4.6588                 0.5350156       -170.6924        0.4721873       -9.929313        0.4721874       -9.929313        0.5350161       -170.6925
4.6602                 0.5325961       -171.6238        0.4753538        -10.5188        0.4753539        -10.5188        0.5325966       -171.6239
4.6616                 0.5299744       -172.5608         0.478629       -11.13955        0.4786291       -11.13955        0.5299748       -172.5609
4.663                  0.5271513       -173.5029        0.4819917       -11.79265        0.4819917       -11.79266        0.5271518        -173.503
4.6644                 0.5241282       -174.4496        0.4854197        -12.4789        0.4854197       -12.47891        0.5241287       -174.4498
4.6658                 0.5209068       -175.4007        0.4888903       -13.19875        0.4888903       -13.19875        0.5209072       -175.4008
4.6672                 0.5174888       -176.3556        0.4923803       -13.95233        0.4923803       -13.95234        0.5174893       -176.3557
4.6686                 0.5138771        -177.314        0.4958671       -14.73953        0.4958671       -14.73953        0.5138774       -177.3142
4.67                   0.5100743       -178.2756        0.4993281       -15.55994        0.4993281       -15.55994        0.5100747       -178.2758
4.6714                 0.5060835       -179.2401        0.5027414       -16.41295        0.5027414       -16.41294         0.506084       -179.2402
4.6728                 0.5019083        179.7928        0.5060859       -17.29773        0.5060859       -17.29772        0.5019088        179.7927
4.6742                 0.4975524        178.8234        0.5093415       -18.21329        0.5093415       -18.21329        0.4975529        178.8233
4.6756                 0.4930196        177.8519        0.5124895       -19.15851        0.5124894        -19.1585        0.4930202        177.8518
4.677                  0.4883142        176.8783        0.5155122       -20.13213        0.5155122       -20.13212        0.4883147        176.8782
4.6784                 0.4834402        175.9029        0.5183936       -21.13283        0.5183936       -21.13282        0.4834408        175.9028
4.6798                 0.4784019        174.9255        0.5211189       -22.15922        0.5211189        -22.1592        0.4784025        174.9255
4.6812                 0.4732035        173.9464        0.5236751       -23.20986        0.5236751       -23.20984        0.4732042        173.9462
4.6826                 0.4678492        172.9652        0.5260507       -24.28331        0.5260507       -24.28328        0.4678499        172.9651
4.684                  0.4623429         171.982        0.5282355        -25.3781        0.5282355        -25.3781        0.4623436        171.9819
4.6854                 0.4566885        170.9966        0.5302211       -26.49286        0.5302211       -26.49283        0.4566893        170.9964
4.6868                 0.4508897        170.0086        0.5320005       -27.62617        0.5320005       -27.62615        0.4508905        170.0085
4.6882                 0.4449495        169.0178         0.533568       -28.77665         0.533568       -28.77663        0.4449503        169.0177
4.6896                  0.438871        168.0238        0.5349193       -29.94306        0.5349194       -29.94303        0.4388718        168.0237
4.691                  0.4326567        167.0262        0.5360514        -31.1242        0.5360515       -31.12418        0.4326575         167.026
4.6924                 0.4263086        166.0244        0.5369622       -32.31887        0.5369623       -32.31885        0.4263095        166.0243
4.6938                 0.4198284        165.0181        0.5376509       -33.52604         0.537651       -33.52601        0.4198293        165.0179
4.6952                 0.4132172        164.0064        0.5381174       -34.74474        0.5381175       -34.74472         0.413218        164.0063
4.6966                 0.4064757        162.9889        0.5383624       -35.97409        0.5383625       -35.97404        0.4064765        162.9888
4.698                  0.3996039        161.9648        0.5383871       -37.21324        0.5383873       -37.21321        0.3996047        161.9647
4.6994                 0.3926016        160.9335        0.5381936       -38.46152        0.5381939       -38.46146        0.3926024        160.9334
4.7008                 0.3854679        159.8942        0.5377842       -39.71826        0.5377844       -39.71824        0.3854687         159.894
4.7022                 0.3782015        158.8462        0.5371612       -40.98298        0.5371614       -40.98293        0.3782022         158.846
4.7036                 0.3708008        157.7886        0.5363274       -42.25517        0.5363277       -42.25509        0.3708015        157.7884
4.705                  0.3632637        156.7207        0.5352857       -43.53441         0.535286       -43.53436        0.3632643        156.7205
4.7064                  0.355588        155.6417        0.5340388        -44.8204        0.5340391       -44.82037        0.3555885        155.6416
4.7078                 0.3477708        154.5509        0.5325891       -46.11287        0.5325895       -46.11285        0.3477714        154.5507
4.7092                 0.3398096        153.4475        0.5309393       -47.41159        0.5309398       -47.41157        0.3398101        153.4473
4.7106                 0.3317016        152.3306        0.5290916       -48.71641        0.5290921       -48.71637        0.3317019        152.3304
4.712                  0.3234437        151.1996        0.5270478       -50.02716        0.5270483       -50.02712         0.323444        151.1994
4.7134                 0.3150332        150.0537        0.5248096       -51.34371        0.5248102       -51.34367        0.3150334        150.0535
4.7148                 0.3064675        148.8922        0.5223783       -52.66596        0.5223789       -52.66593        0.3064677         148.892
4.7162                 0.2977444        147.7144        0.5197549       -53.99381        0.5197555       -53.99378        0.2977445        147.7142
4.7176                 0.2888616        146.5196        0.5169402       -55.32712        0.5169408       -55.32709        0.2888617        146.5194
4.719                  0.2798178        145.3072        0.5139344       -56.66577        0.5139351       -56.66576        0.2798178         145.307
4.7204                 0.2706119        144.0764         0.510738        -58.0096        0.5107386       -58.00959        0.2706119        144.0762
4.7218                 0.2612435        142.8267        0.5073508       -59.35842        0.5073515       -59.35841        0.2612433        142.8265
4.7232                 0.2517127        141.5571        0.5037729       -60.71197        0.5037736       -60.71196        0.2517125        141.5569
4.7246                 0.2420207        140.2671        0.5000043       -62.06996         0.500005       -62.06996        0.2420205        140.2669
4.726                  0.2321694        138.9556         0.496045       -63.43204        0.4960456       -63.43205        0.2321691        138.9554
4.7274                 0.2221614        137.6217         0.491895       -64.79779        0.4918957        -64.7978        0.2221611        137.6215
4.7288                 0.2120005        136.2642         0.487555        -66.1667        0.4875556       -66.16673        0.2120001        136.2641
4.7302                 0.2016913        134.8817        0.4830255       -67.53823        0.4830261       -67.53824        0.2016909        134.8815
4.7316                 0.1912395        133.4722        0.4783077       -68.91173        0.4783084       -68.91174         0.191239        133.4721
4.733                  0.1806516        132.0336        0.4734035       -70.28645        0.4734041       -70.28647        0.1806511        132.0335
4.7344                 0.1699356        130.5627         0.468315       -71.66162        0.4683156       -71.66165        0.1699351        130.5626
4.7358                    0.1591        129.0556        0.4630453       -73.03634        0.4630458       -73.03637        0.1590995        129.0555
4.7372                 0.1481548        127.5068        0.4575981       -74.40964        0.4575986       -74.40968        0.1481542        127.5067
4.7386                 0.1371107         125.909        0.4519778       -75.78053        0.4519783       -75.78056        0.1371102         125.909
4.74                   0.1259798        124.2518        0.4461901       -77.14785        0.4461905       -77.14789        0.1259793        124.2519
4.7414                 0.1147752        122.5206        0.4402412       -78.51046        0.4402416       -78.51051        0.1147747        122.5208
4.7428                 0.1035113         120.694        0.4341382       -79.86715        0.4341386       -79.86718        0.1035107        120.6942
4.7442                0.09220389        118.7395        0.4278895        -81.2166        0.4278899       -81.21665       0.09220334        118.7398
4.7456                0.08087103        116.6058        0.4215042       -82.55753        0.4215045        -82.5576       0.08087051        116.6062
4.747                 0.06953387        114.2084        0.4149923       -83.88861        0.4149926       -83.88867       0.06953336        114.2089
4.7484                0.05821919        111.3964        0.4083648       -85.20846         0.408365       -85.20851        0.0582187        111.3971
4.7498                0.04696574        107.8765        0.4016334       -86.51571        0.4016336       -86.51578       0.04696524        107.8773
4.7512                0.03584187        102.9981        0.3948107       -87.80907        0.3948108       -87.80912       0.03584135        102.9994
4.7526                0.02500919        95.01712        0.3879099       -89.08716          0.38791       -89.08722       0.02500862        95.01899
4.754                 0.01504319        77.73593        0.3809448       -90.34874        0.3809449        -90.3488       0.01504242        77.73863
4.7554               0.009158871        28.11282        0.3739298       -91.59264        0.3739298        -91.5927      0.009157781        28.11258
4.7568                0.01391696       -26.48287        0.3668795        -92.8177        0.3668795       -92.81776       0.01391626       -26.48655
4.7582                0.02345087       -45.87041        0.3598086       -94.02293        0.3598086       -94.02299       0.02345042       -45.87304
4.7596                0.03384983       -54.42038        0.3527324       -95.20745        0.3527323       -95.20751       0.03384945       -54.42231
4.761                 0.04442317       -59.47938        0.3456655       -96.37056        0.3456654        -96.3706       0.04442279       -59.48091
4.7624                0.05499099       -63.04011        0.3386225       -97.51163        0.3386224       -97.51168       0.05499058       -63.04137
4.7638                0.06548339       -65.82511        0.3316178       -98.63035        0.3316177        -98.6304       0.06548298       -65.82617
4.7652                0.07586504       -68.15442        0.3246649       -99.72652        0.3246648       -99.72656       0.07586459       -68.15534
4.7666                 0.0861146       -70.19041        0.3177769       -100.8002        0.3177768       -100.8003        0.0861141       -70.19124
4.768                 0.09621778       -72.02379        0.3109656       -101.8517        0.3109655       -101.8517       0.09621723       -72.02453
4.7694                 0.1061644       -73.70906        0.3042421       -102.8816         0.304242       -102.8816        0.1061639        -73.7097
4.7708                 0.1159474       -75.28075        0.2976162       -103.8906        0.2976161       -103.8906        0.1159468       -75.28134
4.7722                 0.1255617       -76.76189        0.2910965       -104.8797        0.2910963       -104.8797         0.125561       -76.76243
4.7736                 0.1350041       -78.16834        0.2846899       -105.8503        0.2846898       -105.8504        0.1350035       -78.16882
4.775                  0.1442733       -79.51146        0.2784023        -106.804        0.2784022        -106.804        0.1442726        -79.5119
4.7764                 0.1533692       -80.79958        0.2722377       -107.7424        0.2722376       -107.7424        0.1533685       -80.79999
4.7778                 0.1622932       -82.03911        0.2661987       -108.6675        0.2661986       -108.6675        0.1622925       -82.03948
4.7792                  0.171048       -83.23502        0.2602862       -109.5814        0.2602861       -109.5813        0.1710473       -83.23535
4.7806                 0.1796372       -84.39137        0.2544999       -110.4863        0.2544998       -110.4863        0.1796365       -84.39168
4.782                  0.1880655       -85.51154        0.2488377       -111.3847        0.2488376       -111.3847        0.1880648       -85.51183
4.7834                 0.1963385       -86.59851        0.2432963        -112.279        0.2432963        -112.279        0.1963377       -86.59878
4.7848                 0.2044622       -87.65489        0.2378712       -113.1715        0.2378712       -113.1714        0.2044615       -87.65513
4.7862                 0.2124436       -88.68309        0.2325568       -114.0646        0.2325568       -114.0646        0.2124429        -88.6833
4.7876                 0.2202896       -89.68537        0.2273464       -114.9607        0.2273464       -114.9607        0.2202889       -89.68558
4.789                  0.2280077       -90.66391        0.2222328        -115.862        0.2222328       -115.8619         0.228007        -90.6641
4.7904                 0.2356051       -91.62081        0.2172081       -116.7704        0.2172081       -116.7704        0.2356045       -91.62098
4.7918                 0.2430892       -92.55811        0.2122641       -117.6878        0.2122641       -117.6878        0.2430886       -92.55828
4.7932                 0.2504669       -93.47785        0.2073924       -118.6158        0.2073925       -118.6158        0.2504663         -93.478
4.7946                 0.2577447         -94.382         0.202585       -119.5558        0.2025851       -119.5558        0.2577441       -94.38215
4.796                  0.2649286       -95.27249        0.1978337       -120.5087        0.1978337       -120.5087        0.2649281       -95.27262
4.7974                 0.2720238       -96.15121         0.193131       -121.4755        0.1931311       -121.4755        0.2720234       -96.15132
4.7988                 0.2790349       -97.02001        0.1884701       -122.4565        0.1884702       -122.4565        0.2790345       -97.02012
4.8002                 0.2859653       -97.88063        0.1838448        -123.452        0.1838449        -123.452         0.285965       -97.88074
4.8016                 0.2928176       -98.73475        0.1792498        -124.462        0.1792499        -124.462        0.2928173       -98.73488
4.803                  0.2995934       -99.58398        0.1746811        -125.486        0.1746812        -125.486        0.2995932       -99.58409
4.8044                 0.3062932       -100.4297        0.1701354       -126.5236        0.1701355       -126.5236         0.306293       -100.4298
4.8058                 0.3129164       -101.2734        0.1656107       -127.5739        0.1656109       -127.5739        0.3129163       -101.2735
4.8072                 0.3194614       -102.1161        0.1611063       -128.6361        0.1611065       -128.6361        0.3194613       -102.1162
4.8086                 0.3259256        -102.959        0.1566225        -129.709        0.1566227        -129.709        0.3259256       -102.9591
4.81                   0.3323056        -103.803        0.1521609       -130.7917         0.152161       -130.7917        0.3323056       -103.8031
4.8114                 0.3385969       -104.6487        0.1477238       -131.8828         0.147724       -131.8828         0.338597       -104.6488
4.8128                 0.3447946       -105.4968        0.1433152       -132.9814        0.1433153       -132.9814        0.3447947        -105.497
4.8142                 0.3508929       -106.3478        0.1389394       -134.0865        0.1389395       -134.0865        0.3508931       -106.3479
4.8156                 0.3568855       -107.2018        0.1346018       -135.1974        0.1346019       -135.1974        0.3568858       -107.2019
4.817                   0.362766        -108.059        0.1303085       -136.3136        0.1303086       -136.3136        0.3627663       -108.0592
4.8184                 0.3685276       -108.9194        0.1260661       -137.4352        0.1260662       -137.4352        0.3685278       -108.9196
4.8198                 0.3741632       -109.7829        0.1218816       -138.5625        0.1218817       -138.5625        0.3741634        -109.783
4.8212                 0.3796662        -110.649        0.1177621       -139.6968        0.1177622       -139.6968        0.3796665       -110.6492
4.8226                   0.38503       -111.5175        0.1137147       -140.8398        0.1137148       -140.8398        0.3850303       -111.5177
4.824                  0.3902483       -112.3879        0.1097465       -141.9944        0.1097466       -141.9945        0.3902486        -112.388
4.8254                 0.3953152       -113.2594        0.1058642       -143.1644        0.1058643       -143.1644        0.3953156       -113.2596
4.8268                 0.4002258       -114.1316        0.1020739       -144.3546        0.1020739       -144.3547        0.4002261       -114.1317
4.8282                 0.4049753       -115.0036       0.09838095       -145.5715       0.09838096       -145.5715        0.4049756       -115.0038
4.8296                 0.4095601       -115.8748       0.09479012       -146.8226       0.09479015       -146.8226        0.4095605        -115.875
4.831                  0.4139775       -116.7444       0.09130517       -148.1173       0.09130516       -148.1173        0.4139779       -116.7445
4.8324                 0.4182254       -117.6115       0.08792882       -149.4665       0.08792881       -149.4666        0.4182258       -117.6116
4.8338                 0.4223028       -118.4754       0.08466289        -150.883       0.08466287       -150.8831        0.4223032       -118.4755
4.8352                 0.4262098       -119.3354       0.08150823       -152.3814       0.08150823       -152.3814        0.4262101       -119.3355
4.8366                 0.4299473       -120.1907       0.07846491       -153.9781       0.07846488       -153.9782        0.4299476       -120.1909
4.838                  0.4335172       -121.0407       0.07553236       -155.6917       0.07553233       -155.6918        0.4335176       -121.0409
4.8394                 0.4369224       -121.8849       0.07270969       -157.5427       0.07270966       -157.5427        0.4369228       -121.8851
4.8408                 0.4401666       -122.7227       0.06999605       -159.5534       0.06999601       -159.5534         0.440167       -122.7229
4.8422                 0.4432541       -123.5537       0.06739106       -161.7482       0.06739102       -161.7482        0.4432545       -123.5539
4.8436                 0.4461902       -124.3776       0.06489539       -164.1533       0.06489536       -164.1533        0.4461905       -124.3778
4.845                  0.4489804       -125.1943       0.06251138       -166.7964       0.06251134       -166.7964        0.4489807       -125.1944
4.8464                 0.4516307       -126.0036       0.06024365       -169.7066       0.06024361       -169.7066        0.4516311       -126.0037
4.8478                 0.4541478       -126.8055       0.05809994       -172.9136       0.05809989       -172.9137        0.4541481       -126.8057
4.8492                 0.4565378       -127.6004       0.05609175       -176.4471        0.0560917       -176.4472        0.4565382       -127.6005
4.8506                 0.4588072       -128.3884       0.05423508         179.665       0.05423503         179.665        0.4588075       -128.3886
4.852                  0.4609622         -129.17       0.05255094        175.3986       0.05255089        175.3986        0.4609625       -129.1702
4.8534                 0.4630086       -129.9459       0.05106557        170.7361       0.05106552         170.736         0.463009        -129.946
4.8548                 0.4649515       -130.7165       0.04981024        165.6699       0.04981019        165.6698        0.4649518       -130.7166
4.8562                 0.4667953       -131.4827       0.04882045        160.2069       0.04882041        160.2069        0.4667957       -131.4829
4.8576                 0.4685436       -132.2454       0.04813427        154.3721       0.04813422        154.3721        0.4685441       -132.2456
4.859                  0.4701989       -133.0055       0.04778988        148.2115       0.04778982        148.2115        0.4701994       -133.0056
4.8604                 0.4717625        -133.764       0.04782243        141.7919       0.04782237        141.7919         0.471763       -133.7641
4.8618                 0.4732343       -134.5219       0.04826072        135.1977       0.04826067        135.1977        0.4732347       -134.5221
4.8632                 0.4746129       -135.2803       0.04912422        128.5239       0.04912417        128.5239        0.4746135       -135.2805
4.8646                 0.4758957       -136.0403       0.05042111        121.8665       0.05042105        121.8664        0.4758962       -136.0405
4.866                  0.4770781       -136.8029       0.05214776        115.3128       0.05214771        115.3128        0.4770786        -136.803
4.8674                 0.4781544        -137.569       0.05428968        108.9344       0.05428964        108.9344         0.478155       -137.5692
4.8688                 0.4791176       -138.3397       0.05682344        102.7828       0.05682339        102.7827        0.4791181       -138.3398
4.8702                 0.4799589       -139.1157        0.0597191        96.88924       0.05971905        96.88922        0.4799595       -139.1158
4.8716                 0.4806684       -139.8977       0.06294266        91.26725        0.0629426        91.26722        0.4806689       -139.8979