! TOUCHSTONE file generated by CST MICROWAVE STUDIO
! Date and time: Sat Nov 30 13:12:02 2024
! Project name: test_tuning.cst
! Parameters = {airCoaxOuterDiameter=3; chamferAngle=45; chamferWidth=24; connectorLength=10; drillingHoleDiameter=4.1; feedLength=60; flareDiameter=130; flareLength=70; gratingDistance=0; gratingGap=1.90274; outletLength=30; polarizerLength=134; probe1Diameter=1.3; probe1Distance=14; probe1Length=14; probe2Diameter=1.3; probe2Distance=0; probe2Length=14; probeLength=14; smaInnerDiameter=1.3; smaOuterDiameter=4.1; transitionCoefficient=1.33; waveguideFeedLength=30; waveguideSide=50; waveguideThickness=3; wireCount=25; wireDiameter=1.17699}
! Header version: 2024
! Port assignment regex: !\s*Touchstone port\s*([0-9]+)\s*=\s*(CST MWS port|CST DES external port|CST DES block port)\s*(.+)\s* \(\"(.*)\"\)(\s*mode\s*([0-9]+))?.*
! Touchstone port assignment:
! Touchstone port 1 = CST MWS port 1 ("Input1")
! Touchstone port 2 = CST MWS port 2 ("Input2")
# GHz S MA R 50
4.6                     0.383691       -142.0137        0.4981462        28.31108        0.4981464        28.31107        0.3836922       -142.0138
4.6014                 0.3861979       -142.5108        0.5002738        27.67528        0.5002739        27.67528        0.3861991       -142.5109
4.6028                 0.3887741       -143.0235        0.5023132        27.02064        0.5023134        27.02064        0.3887753       -143.0236
4.6042                 0.3914143       -143.5525        0.5042461        26.34845        0.5042462        26.34845        0.3914154       -143.5527
4.6056                 0.3941129       -144.0986        0.5060553        25.66021        0.5060554        25.66021         0.394114       -144.0988
4.607                  0.3968641       -144.6623        0.5077257        24.95763        0.5077257        24.95763        0.3968651       -144.6625
4.6084                 0.3996618       -145.2441        0.5092439         24.2426        0.5092439         24.2426        0.3996627       -145.2443
4.6098                 0.4024999       -145.8444        0.5105989        23.51718         0.510599        23.51718        0.4025008       -145.8446
4.6112                 0.4053721       -146.4635        0.5117823         22.7835        0.5117824        22.78351        0.4053728       -146.4638
4.6126                 0.4082722       -147.1018         0.512788         22.0438        0.5127881        22.04381        0.4082728        -147.102
4.614                  0.4111938       -147.7594        0.5136125        21.30037        0.5136125        21.30039        0.4111943       -147.7596
4.6154                 0.4141307       -148.4364        0.5142553        20.55549        0.5142552        20.55552        0.4141311       -148.4367
4.6168                 0.4170766       -149.1331        0.5147183        19.81147        0.5147183        19.81149        0.4170769       -149.1334
4.6182                 0.4200253       -149.8496        0.5150064         19.0705        0.5150065        19.07053        0.4200254       -149.8498
4.6196                 0.4229704       -150.5858        0.5151271        18.33476        0.5151271         18.3348        0.4229704        -150.586
4.621                  0.4259059       -151.3418        0.5150903        17.60628        0.5150904        17.60632        0.4259057       -151.3421
4.6224                 0.4288252       -152.1177        0.5149085        16.88695        0.5149086          16.887        0.4288249        -152.118
4.6238                 0.4317222       -152.9135        0.5145962         16.1785        0.5145964        16.17855        0.4317218       -152.9138
4.6252                 0.4345905       -153.7292        0.5141703        15.48243        0.5141704        15.48249          0.43459       -153.7295
4.6266                 0.4374236       -154.5648        0.5136489        14.80005        0.5136491        14.80011         0.437423        -154.565
4.628                  0.4402149       -155.4202        0.5130523        14.13236        0.5130526        14.13243        0.4402143       -155.4205
4.6294                 0.4429578       -156.2956        0.5124013        13.48014        0.5124016        13.48021         0.442957       -156.2958
4.6308                 0.4456453       -157.1907        0.5117178        12.84383        0.5117182        12.84391        0.4456445       -157.1909
4.6322                 0.4482704       -158.1057        0.5110243        12.22357        0.5110247        12.22365        0.4482695       -158.1058
4.6336                  0.450826       -159.0403        0.5103431        11.61918        0.5103436        11.61926         0.450825       -159.0405
4.635                  0.4533046       -159.9946        0.5096965        11.03014         0.509697        11.03022        0.4533036       -159.9948
4.6364                 0.4556987       -160.9685        0.5091058        10.45559        0.5091064        10.45567        0.4556977       -160.9687
4.6378                 0.4580006       -161.9618        0.5085916        9.894379        0.5085923        9.894461        0.4579994        -161.962
4.6392                 0.4602022       -162.9744        0.5081727        9.345022        0.5081735        9.345104        0.4602011       -162.9746
4.6406                 0.4622957       -164.0061        0.5078664         8.80576        0.5078673        8.805839        0.4622947       -164.0062
4.642                   0.464273       -165.0567        0.5076878        8.274572        0.5076888        8.274649         0.464272       -165.0568
4.6434                 0.4661259        -166.126        0.5076496        7.749222        0.5076506        7.749291        0.4661249        -166.126
4.6448                 0.4678461       -167.2135        0.5077619        7.227283         0.507763        7.227347        0.4678452       -167.2136
4.6462                 0.4694257       -168.3191        0.5080321        6.706202        0.5080333         6.70626        0.4694247       -168.3192
4.6476                 0.4708564       -169.4423        0.5084648        6.183336         0.508466        6.183387        0.4708555       -169.4423
4.649                  0.4721304       -170.5826        0.5090613        5.656012        0.5090625        5.656054        0.4721295       -170.5827
4.6504                   0.47324       -171.7397        0.5098204        5.121568        0.5098216        5.121601        0.4732393       -171.7397
4.6518                 0.4741779       -172.9129        0.5107377        4.577412        0.5107391        4.577435        0.4741772       -172.9129
4.6532                  0.474937       -174.1017        0.5118064        4.021062        0.5118077        4.021076        0.4749363       -174.1018
4.6546                 0.4755107       -175.3056        0.5130166        3.450195         0.513018        3.450199        0.4755101       -175.3056
4.656                   0.475893       -176.5237        0.5143567        2.862677        0.5143581        2.862672        0.4758924       -176.5237
4.6574                 0.4760782       -177.7555        0.5158125        2.256599        0.5158138        2.256583        0.4760778       -177.7555
4.6588                 0.4760616       -179.0001        0.5173681        1.630296        0.5173694        1.630271        0.4760612       -179.0002
4.6602                 0.4758389        179.7431        0.5190063       0.9823693        0.5190077       0.9823344        0.4758385         179.743
4.6616                 0.4754066         178.475        0.5207085       0.3116901        0.5207098       0.3116461        0.4754063         178.475
4.663                  0.4747621        177.1964        0.5224555      -0.3825937        0.5224567      -0.3826463        0.4747619        177.1964
4.6644                 0.4739037        175.9082        0.5242272       -1.101061        0.5242285       -1.101122        0.4739035        175.9082
4.6658                 0.4728301        174.6112        0.5260037       -1.844029        0.5260049       -1.844096          0.47283        174.6112
4.6672                 0.4715416        173.3063         0.527765        -2.61156        0.5277662       -2.611634        0.4715414        173.3063
4.6686                 0.4700388        171.9943        0.5294915       -3.403486        0.5294926       -3.403566        0.4700387        171.9943
4.67                   0.4683235        170.6761        0.5311643       -4.219422        0.5311653       -4.219507        0.4683234        170.6761
4.6714                 0.4663985        169.3526        0.5327651       -5.058794         0.532766       -5.058882        0.4663984        169.3525
4.6728                 0.4642671        168.0245         0.534277       -5.920855        0.5342779       -5.920946        0.4642671        168.0244
4.6742                  0.461934        166.6926        0.5356841       -6.804713        0.5356849       -6.804807         0.461934        166.6926
4.6756                 0.4594042        165.3577         0.536972       -7.709361        0.5369727       -7.709456        0.4594042        165.3577
4.677                  0.4566839        164.0206        0.5381275       -8.633686        0.5381281       -8.633782        0.4566839        164.0206
4.6784                 0.4537798        162.6818        0.5391392       -9.576511        0.5391398       -9.576604        0.4537799        162.6817
4.6798                 0.4506994        161.3419        0.5399972        -10.5366        0.5399977       -10.53669        0.4506994        161.3418
4.6812                 0.4474508        160.0014        0.5406933       -11.51268        0.5406937       -11.51278        0.4474508        160.0014
4.6826                 0.4440423        158.6609        0.5412205       -12.50349        0.5412209       -12.50358        0.4440424        158.6608
4.684                  0.4404833        157.3205        0.5415739       -13.50776        0.5415742       -13.50784        0.4404833        157.3205
4.6854                 0.4367827        155.9807        0.5417498       -14.52424        0.5417501       -14.52432        0.4367827        155.9806
4.6868                 0.4329505        154.6414         0.541746       -15.55173        0.5417461       -15.55181        0.4329505        154.6414
4.6882                 0.4289961        153.3029        0.5415616       -16.58908        0.5415617       -16.58915        0.4289961        153.3028
4.6896                 0.4249294        151.9649        0.5411969        -17.6352         0.541197       -17.63526        0.4249295        151.9649
4.691                  0.4207602        150.6274        0.5406534       -18.68908        0.5406534       -18.68914        0.4207602        150.6273
4.6924                 0.4164978        149.2899        0.5399335       -19.74977        0.5399335       -19.74986        0.4164979        149.2898
4.6938                 0.4121517        147.9521        0.5390405        -20.8165        0.5390406       -20.81656        0.4121518         147.952
4.6952                 0.4077308        146.6133        0.5379784       -21.88845        0.5379785       -21.88848        0.4077309        146.6133
4.6966                 0.4032435         145.273        0.5367517       -22.96497        0.5367518       -22.96503        0.4032435        145.2729
4.698                  0.3986976        143.9301        0.5353653       -24.04558        0.5353653        -24.0456        0.3986977        143.9301
4.6994                 0.3941005         142.584        0.5338242       -25.12974        0.5338243       -25.12977        0.3941006        142.5839
4.7008                 0.3894587        141.2333        0.5321337       -26.21716        0.5321338       -26.21716        0.3894589        141.2332
4.7022                 0.3847784        139.8769         0.530299       -27.30755        0.5302991       -27.30758        0.3847786        139.8769
4.7036                 0.3800643        138.5137        0.5283252       -28.40073        0.5283253       -28.40072        0.3800646        138.5136
4.705                  0.3753209         137.142        0.5262168       -29.49661        0.5262169       -29.49661        0.3753212         137.142
4.7064                 0.3705516        135.7605        0.5239785       -30.59515        0.5239787       -30.59518        0.3705519        135.7605
4.7078                 0.3657591        134.3677         0.521614        -31.6964        0.5216141        -31.6964        0.3657594        134.3677
4.7092                 0.3609452        132.9618        0.5191266       -32.80047        0.5191268       -32.80047        0.3609455        132.9617
4.7106                 0.3561109        131.5411        0.5165193       -33.90744        0.5165195       -33.90745        0.3561112        131.5411
4.712                  0.3512567         130.104        0.5137941        -35.0175        0.5137944       -35.01751         0.351257         130.104
4.7134                 0.3463822        128.6486        0.5109529       -36.13081        0.5109532       -36.13082        0.3463826        128.6486
4.7148                 0.3414866        127.1732        0.5079963       -37.24755        0.5079967       -37.24756         0.341487        127.1732
4.7162                 0.3365685         125.676         0.504925       -38.36789        0.5049254       -38.36789        0.3365688         125.676
4.7176                 0.3316259        124.1551        0.5017388       -39.49196        0.5017392       -39.49197        0.3316263        124.1551
4.719                  0.3266571        122.6088         0.498437       -40.61988        0.4984374        -40.6199        0.3266574        122.6087
4.7204                 0.3216595        121.0353        0.4950186       -41.75171         0.495019       -41.75174        0.3216599        121.0352
4.7218                 0.3166308        119.4328        0.4914823       -42.88747        0.4914828       -42.88748        0.3166312        119.4327
4.7232                 0.3115689        117.7996        0.4878266       -44.02708        0.4878271        -44.0271        0.3115692        117.7995
4.7246                 0.3064714         116.134        0.4840498       -45.17043        0.4840502       -45.17046        0.3064717        116.1339
4.726                  0.3013367        114.4343        0.4801501       -46.31732        0.4801506       -46.31734         0.301337        114.4342
4.7274                 0.2961631         112.699        0.4761262       -47.46744        0.4761267       -47.46747        0.2961633        112.6988
4.7288                 0.2909497        110.9263        0.4719766       -48.62043         0.471977       -48.62047          0.29095        110.9261
4.7302                 0.2856963        109.1146        0.4677003       -49.77581        0.4677008       -49.77586        0.2856964        109.1145
4.7316                 0.2804029        107.2625        0.4632967       -50.93306        0.4632972       -50.93311        0.2804031        107.2623
4.733                  0.2750709        105.3682         0.458766       -52.09151        0.4587665       -52.09156        0.2750711        105.3681
4.7344                 0.2697022        103.4303        0.4541086       -53.25043        0.4541091       -53.25049        0.2697023        103.4302
4.7358                 0.2642997        101.4471        0.4493261       -54.40904        0.4493265       -54.40911        0.2642996        101.4469
4.7372                 0.2588671        99.41699        0.4444204       -55.56646        0.4444208       -55.56653         0.258867        99.41679
4.7386                 0.2534095        97.33825        0.4393946       -56.72175        0.4393951       -56.72181        0.2534093        97.33806
4.74                   0.2479328        95.20923        0.4342528       -57.87391        0.4342532       -57.87397        0.2479326        95.20904
4.7414                 0.2424439        93.02814        0.4289995        -59.0219        0.4289998       -59.02197        0.2424437        93.02795
4.7428                 0.2369511        90.79311        0.4236406       -60.16464        0.4236409       -60.16472        0.2369508        90.79292
4.7442                 0.2314636        88.50228        0.4181827       -61.30108         0.418183       -61.30115        0.2314632        88.50207
4.7456                 0.2259916        86.15356        0.4126333        -62.4301        0.4126336       -62.43018        0.2259912        86.15337
4.747                  0.2205466          83.745         0.407001       -63.55063        0.4070012       -63.55071        0.2205461        83.74478
4.7484                  0.215141        81.27436        0.4012947       -64.66163        0.4012949       -64.66173        0.2151404        81.27415
4.7498                 0.2097881        78.73945        0.3955245       -65.76211        0.3955246        -65.7622        0.2097876        78.73927
4.7512                 0.2045026        76.13809        0.3897007       -66.85113        0.3897008       -66.85123         0.204502        76.13788
4.7526                 0.1992996        73.46797        0.3838343       -67.92787        0.3838344       -67.92796        0.1992989        73.46779
4.754                  0.1941952        70.72696        0.3779368       -68.99157        0.3779369       -68.99166        0.1941945        70.72675
4.7554                 0.1892065        67.91289        0.3720197       -70.04163        0.3720196       -70.04172        0.1892057        67.91268
4.7568                 0.1843509        65.02391        0.3660945       -71.07758        0.3660945       -71.07767        0.1843501         65.0237
4.7582                 0.1796466        62.05827         0.360173       -72.09912         0.360173        -72.0992        0.1796458        62.05809
4.7596                 0.1751122        59.01477        0.3542665        -73.1061        0.3542664       -73.10618        0.1751113        59.01455
4.761                  0.1707665        55.89252        0.3483859       -74.09859        0.3483858       -74.09867        0.1707656        55.89234
4.7624                 0.1666283        52.69146        0.3425417        -75.0768        0.3425416       -75.07688        0.1666275        52.69126
4.7638                 0.1627168        49.41223        0.3367436       -76.04126        0.3367434       -76.04131        0.1627159        49.41202
4.7652                 0.1590502        46.05642        0.3310004       -76.99256        0.3310002       -76.99262        0.1590493        46.05621
4.7666                 0.1556467        42.62675          0.32532        -77.9316        0.3253198       -77.93165        0.1556459        42.62654
4.768                  0.1525235        39.12723        0.3197091       -78.85945         0.319709       -78.85952        0.1525226          39.127
4.7694                 0.1496966        35.56316        0.3141734       -79.77738        0.3141733       -79.77745        0.1496957        35.56294
4.7708                 0.1471805        31.94134        0.3087171       -80.68683        0.3087169       -80.68688        0.1471796        31.94112
4.7722                 0.1449883        28.26997        0.3033431        -81.5894        0.3033429       -81.58945        0.1449874        28.26974
4.7736                 0.1431307        24.55862         0.298053       -82.48681        0.2980528       -82.48687        0.1431299        24.55839
4.775                  0.1416165         20.8181         0.292847        -83.3809        0.2928468       -83.38094        0.1416156        20.81786
4.7764                 0.1404515        17.06022         0.287724       -84.27357        0.2877238       -84.27362        0.1404507        17.05997
4.7778                 0.1396395        13.29749        0.2826817       -85.16678        0.2826815       -85.16683        0.1396387        13.29723
4.7792                 0.1391811        9.542772        0.2777165       -86.06247        0.2777163       -86.06249        0.1391803        9.542499
4.7806                 0.1390744        5.808895        0.2728237       -86.96254        0.2728235       -86.96257        0.1390736        5.808612
4.782                  0.1393149         2.10826        0.2679979       -87.86884        0.2679977       -87.86886        0.1393142        2.107968
4.7834                 0.1398956        -1.54752        0.2632327       -88.78309        0.2632326       -88.78312        0.1398949       -1.547823
4.7848                 0.1408073       -5.147953        0.2585213        -89.7069        0.2585211       -89.70692        0.1408067       -5.148264
4.7862                 0.1420391       -8.683894        0.2538562       -90.64169        0.2538561       -90.64171        0.1420385       -8.684214
4.7876                 0.1435782       -12.14773          0.24923       -91.58868        0.2492299        -91.5887        0.1435776       -12.14806
4.789                  0.1454106       -15.53345        0.2446351        -92.5489        0.2446349       -92.54892          0.14541       -15.53379
4.7904                 0.1475211       -18.83665        0.2400639       -93.52315        0.2400638       -93.52316        0.1475206         -18.837
4.7918                 0.1498942       -22.05447        0.2355095       -94.51196        0.2355094       -94.51198        0.1498937       -22.05483
4.7932                 0.1525135       -25.18545        0.2309652       -95.51566        0.2309651       -95.51569        0.1525131       -25.18581
4.7946                 0.1553624        -28.2294        0.2264251        -96.5343         0.226425       -96.53433         0.155362       -28.22977
4.796                  0.1584242       -31.18722         0.221884       -97.56771        0.2218839       -97.56773        0.1584238       -31.18759
4.7974                 0.1616822       -34.06066        0.2173378        -98.6155        0.2173377       -98.61552        0.1616819       -34.06105
4.7988                 0.1651198        -36.8522        0.2127832       -99.67708        0.2127831        -99.6771        0.1651195       -36.85259
4.8002                 0.1687205       -39.56483        0.2082183       -100.7517        0.2082181       -100.7517        0.1687202       -39.56523
4.8016                 0.1724679        -42.2019         0.203642       -101.8383        0.2036418       -101.8383        0.1724677        -42.2023
4.803                  0.1763461       -44.76697        0.1990545        -102.936        0.1990544        -102.936        0.1763459       -44.76738
4.8044                 0.1803392       -47.26371        0.1944575       -104.0435        0.1944574       -104.0435         0.180339       -47.26413
4.8058                 0.1844317        -49.6958        0.1898534       -105.1597        0.1898534       -105.1597        0.1844315       -49.69621
4.8072                 0.1886084       -52.06679        0.1852461       -106.2834         0.185246       -106.2834        0.1886082        -52.0672
4.8086                 0.1928543       -54.38015        0.1806401       -107.4135          0.18064       -107.4135        0.1928541       -54.38056
4.81                   0.1971549       -56.63913        0.1760413       -108.5489        0.1760412       -108.5489        0.1971548       -56.63955
4.8114                 0.2014961       -58.84676        0.1714563       -109.6888        0.1714562       -109.6888         0.201496       -58.84717
4.8128                 0.2058641       -61.00583        0.1668922       -110.8326        0.1668921       -110.8326         0.205864       -61.00626
4.8142                 0.2102457       -63.11891        0.1623571         -111.98        0.1623569         -111.98        0.2102455       -63.11933
4.8156                 0.2146281       -65.18828         0.157859       -113.1312        0.1578589       -113.1312        0.2146279       -65.18869
4.817                  0.2189992       -67.21599        0.1534066       -114.2868        0.1534065       -114.2868         0.218999       -67.21641
4.8184                 0.2233475       -69.20387        0.1490083       -115.4479        0.1490081       -115.4479        0.2233473       -69.20428
4.8198                 0.2276622       -71.15351        0.1446724       -116.6164        0.1446723       -116.6164        0.2276619       -71.15391
4.8212                 0.2319332       -73.06629         0.140407       -117.7948        0.1404069       -117.7948         0.231933       -73.06669
4.8226                 0.2361513       -74.94343        0.1362195       -118.9866        0.1362194       -118.9866        0.2361511       -74.94383
4.824                  0.2403083       -76.78596        0.1321168       -120.1961        0.1321167       -120.1961         0.240308       -76.78636
4.8254                 0.2443966       -78.59481        0.1281047       -121.4286        0.1281046       -121.4286        0.2443963       -78.59521
4.8268                 0.2484097       -80.37073         0.124188       -122.6906        0.1241879       -122.6906        0.2484094       -80.37112
4.8282                 0.2523422       -82.11445        0.1203706       -123.9896        0.1203706       -123.9896        0.2523419       -82.11482
4.8296                 0.2561896       -83.82655        0.1166551       -125.3342        0.1166551       -125.3342        0.2561893       -83.82692
4.831                  0.2599484       -85.50764        0.1130429       -126.7344        0.1130428       -126.7344         0.259948       -85.50799
4.8324                 0.2636162       -87.15824        0.1095342       -128.2012        0.1095341       -128.2012        0.2636158       -87.15858
4.8338                 0.2671914       -88.77889        0.1061282        -129.747        0.1061281        -129.747        0.2671909       -88.77922
4.8352                 0.2706735       -90.37018        0.1028232       -131.3853        0.1028232       -131.3853        0.2706731       -90.37049
4.8366                  0.274063       -91.93265       0.09961702       -133.1309       0.09961697       -133.1308        0.2740626       -91.93296
4.838                  0.2773612         -93.467       0.09650683       -134.9995       0.09650679       -134.9994        0.2773608       -93.46731
4.8394                 0.2805701       -94.97394       0.09349004       -137.0082       0.09349002       -137.0081        0.2805697       -94.97425
4.8408                 0.2836924       -96.45429       0.09056444       -139.1751        0.0905644       -139.1751         0.283692       -96.45457
4.8422                 0.2867313       -97.90895       0.08772877       -141.5194       0.08772875       -141.5194        0.2867309       -97.90922
4.8436                 0.2896908       -99.33895       0.08498329       -144.0613       0.08498326       -144.0612        0.2896904       -99.33921
4.845                  0.2925749       -100.7454       0.08233038       -146.8217       0.08233037       -146.8216        0.2925745       -100.7457
4.8464                 0.2953878       -102.1297       0.07977516       -149.8223       0.07977516       -149.8222        0.2953874       -102.1299
4.8478                 0.2981339       -103.4931       0.07732608       -153.0851       0.07732607        -153.085        0.2981336       -103.4933
4.8492                 0.3008174       -104.8372       0.07499563       -156.6318       0.07499563       -156.6317        0.3008172       -104.8374
4.8506                 0.3034423       -106.1636       0.07280084       -160.4831       0.07280083        -160.483         0.303442       -106.1638
4.852                  0.3060119       -107.4741        0.0707637       -164.6573        0.0707637       -164.6573        0.3060117       -107.4743
4.8534                 0.3085291       -108.7705       0.06891139       -169.1688        0.0689114       -169.1688         0.308529       -108.7707
4.8548                 0.3109962       -110.0548       0.06727618       -174.0258       0.06727619       -174.0258        0.3109961        -110.055
4.8562                 0.3134142        -111.329       0.06589474       -179.2277       0.06589475       -179.2277        0.3134142       -111.3292
4.8576                 0.3157834       -112.5953       0.06480701        175.2375       0.06480702        175.2375        0.3157834       -112.5954
4.859                   0.318103       -113.8555       0.06405427        169.3957       0.06405428        169.3957         0.318103       -113.8557
4.8604                 0.3203706        -115.112       0.06367661        163.2877       0.06367662        163.2877        0.3203707       -115.1122
4.8618                 0.3225828       -116.3667       0.06370998        156.9693       0.06370999        156.9693        0.3225829       -116.3669
4.8632                 0.3247348       -117.6217       0.06418312        150.5082       0.06418313        150.5082         0.324735       -117.6218
4.8646                 0.3268205       -118.8789       0.06511493        143.9791       0.06511493        143.9791        0.3268207        -118.879
4.866                  0.3288323       -120.1401       0.06651285        137.4578       0.06651286        137.4578        0.3288326       -120.1403
4.8674                 0.3307611       -121.4072       0.06837232        131.0148       0.06837232        131.0147        0.3307615       -121.4074
4.8688                 0.3325971       -122.6816       0.07067753        124.7094       0.07067753        124.7094        0.3325975       -122.6818
4.8702                 0.3343288       -123.9649       0.07340319        118.5875       0.07340319        118.5875        0.3343291       -123.9651
4.8716                 0.3359435       -125.2582       0.07651667        112.6799       0.07651668        112.6799         0.335944       -125.2584