! TOUCHSTONE file generated by CST MICROWAVE STUDIO
! Date and time: Sat Nov 30 13:11:59 2024
! Project name: test_tuning.cst
! Parameters = {airCoaxOuterDiameter=3; chamferAngle=45; chamferWidth=24; connectorLength=10; drillingHoleDiameter=4.1; feedLength=60; flareDiameter=130; flareLength=70; gratingDistance=0; gratingGap=1.90274; outletLength=30; polarizerLength=134; probe1Diameter=1.3; probe1Distance=14; probe1Length=8.5; probe2Diameter=1.3; probe2Distance=0; probe2Length=8.5; probeLength=8.5; smaInnerDiameter=1.3; smaOuterDiameter=4.1; transitionCoefficient=1.33; waveguideFeedLength=30; waveguideSide=50; waveguideThickness=3; wireCount=25; wireDiameter=1.17699}
! Header version: 2024
! Port assignment regex: !\s*Touchstone port\s*([0-9]+)\s*=\s*(CST MWS port|CST DES external port|CST DES block port)\s*(.+)\s* \(\"(.*)\"\)(\s*mode\s*([0-9]+))?.*
! Touchstone port assignment:
! Touchstone port 1 = CST MWS port 1 ("Input1")
! Touchstone port 2 = CST MWS port 2 ("Input2")
# GHz S MA R 50
4.6                     0.745836        119.3843        0.3287198       -169.0638        0.3287203       -169.0638        0.7458371        119.3842
4.6014                 0.7411857        118.3269        0.3418837       -169.2307        0.3418843       -169.2307        0.7411866        118.3268
4.6028                   0.73481        117.1537        0.3568595        -169.628          0.35686        -169.628         0.734811        117.1536
4.6042                 0.7264206        115.8744         0.373521       -170.2886        0.3735215       -170.2886        0.7264216        115.8743
4.6056                  0.715757        114.5012         0.391693        -171.232        0.3916935        -171.232        0.7157578        114.5012
4.607                  0.7025909        113.0491         0.411163       -172.4656        0.4111635       -172.4656        0.7025917         113.049
4.6084                 0.6867328        111.5357        0.4316921       -173.9868        0.4316926       -173.9868        0.6867337        111.5356
4.6098                 0.6680353        109.9821        0.4530248       -175.7856        0.4530252       -175.7856         0.668036         109.982
4.6112                 0.6463969        108.4132        0.4748961       -177.8471        0.4748966       -177.8471        0.6463976        108.4131
4.6126                 0.6217676        106.8588        0.4970379        179.8469        0.4970383        179.8469        0.6217683        106.8587
4.614                  0.5941522        105.3552        0.5191832        177.3161        0.5191837        177.3161        0.5941529        105.3552
4.6154                 0.5636173        103.9479        0.5410699        174.5807        0.5410704        174.5807        0.5636181        103.9479
4.6168                 0.5302981         102.695        0.5624438         171.661        0.5624442        171.6609        0.5302989        102.6949
4.6182                 0.4944094        101.6726        0.5830608        168.5763        0.5830612        168.5763        0.4944101        101.6725
4.6196                 0.4562621        100.9838        0.6026898        165.3453        0.6026903        165.3453        0.4562629        100.9837
4.621                  0.4162908        100.7716        0.6211151        161.9857        0.6211155        161.9857        0.4162916        100.7715
4.6224                 0.3750994        101.2399        0.6381379        158.5141        0.6381383        158.5141        0.3751003        101.2399
4.6238                 0.3335419        102.6852        0.6535791        154.9464        0.6535795        154.9464        0.3335428        102.6851
4.6252                 0.2928635        105.5392        0.6672809        151.2971        0.6672812        151.2971        0.2928643        105.5391
4.6266                 0.2549382        110.4071        0.6791083        147.5803        0.6791086        147.5802         0.254939         110.407
4.628                  0.2226031        118.0162        0.6889505        143.8088        0.6889508        143.8088        0.2226039        118.0161
4.6294                 0.1998542        128.8391        0.6967218        139.9952        0.6967222        139.9951        0.1998548        128.8388
4.6308                 0.1910742        142.1917        0.7023618        136.1508        0.7023624        136.1508        0.1910746        142.1914
4.6322                    0.1986        155.7415        0.7058358        132.2868        0.7058361        132.2868        0.1986001        155.7412
4.6336                 0.2208199        167.0016        0.7071331        128.4135        0.7071337        128.4135        0.2208197        167.0013
4.635                  0.2536278        175.0542        0.7062676        124.5407         0.706268        124.5406        0.2536275         175.054
4.6364                 0.2929917       -179.7266         0.703275        120.6777        0.7032754        120.6777        0.2929913       -179.7268
4.6378                 0.3359727       -176.6166        0.6982114        116.8336         0.698212        116.8336        0.3359722       -176.6167
4.6392                 0.3806192       -174.9889        0.6911526        113.0171        0.6911531         113.017        0.3806187        -174.989
4.6406                 0.4256377       -174.3921        0.6821901        109.2364        0.6821907        109.2363        0.4256372       -174.3922
4.642                  0.4701426       -174.5171        0.6714305        105.4998         0.671431        105.4997         0.470142       -174.5171
4.6434                 0.5135039       -175.1527        0.6589927        101.8154        0.6589933        101.8154        0.5135035       -175.1528
4.6448                 0.5552592       -176.1527        0.6450066         98.1915        0.6450071        98.19147        0.5552587       -176.1527
4.6462                 0.5950618       -177.4134        0.6296106        94.63635        0.6296111        94.63632        0.5950614       -177.4134
4.6476                 0.6326512       -178.8595        0.6129507        91.15852        0.6129513        91.15849        0.6326508       -178.8596
4.649                  0.6678337        179.5649        0.5951789        87.76692        0.5951794        87.76688        0.6678332        179.5648
4.6504                 0.7004703        177.9023        0.5764518        84.47096        0.5764523        84.47091          0.70047        177.9023
4.6518                 0.7304695        176.1862        0.5569301        81.28055        0.5569306        81.28051        0.7304692        176.1861
4.6532                 0.7577806        174.4429        0.5367772        78.20623        0.5367776        78.20618        0.7577804        174.4428
4.6546                 0.7823905         172.694         0.516159        75.25925        0.5161595         75.2592        0.7823902         172.694
4.656                  0.8043198        170.9574        0.4952432         72.4515        0.4952436        72.45144        0.8043196        170.9574
4.6574                  0.823621        169.2482        0.4741981        69.79547        0.4741985        69.79542        0.8236209        169.2481
4.6588                 0.8403759        167.5791        0.4531926        67.30416         0.453193        67.30408        0.8403758        167.5791
4.6602                 0.8546934        165.9614        0.4323945        64.99072        0.4323948        64.99064        0.8546931        165.9614
4.6616                 0.8667072        164.4046        0.4119696        62.86812        0.4119699        62.86805        0.8667071        164.4045
4.663                  0.8765746        162.9169        0.3920801        60.94857        0.3920804        60.94848        0.8765744        162.9168
4.6644                 0.8844724        161.5052        0.3728822        59.24269        0.3728825         59.2426        0.8844722        161.5051
4.6658                 0.8905952        160.1751        0.3545236        57.75856        0.3545238        57.75845        0.8905949         160.175
4.6672                 0.8951513         158.931        0.3371396        56.50054        0.3371397        56.50043        0.8951509         158.931
4.6686                 0.8983588        157.7759        0.3208493        55.46797        0.3208494        55.46785        0.8983584        157.7758
4.67                   0.9004421        156.7111        0.3057512        54.65396        0.3057512        54.65384        0.9004415         156.711
4.6714                 0.9016258        155.7366        0.2919177        54.04432        0.2919177        54.04419        0.9016252        155.7365
4.6728                 0.9021307        154.8506        0.2793912        53.61709        0.2793911        53.61696          0.90213        154.8506
4.6742                 0.9021674        154.0499          0.26818        53.34267        0.2681798        53.34255        0.9021666        154.0498
4.6756                 0.9019323        153.3294        0.2582564        53.18507        0.2582562        53.18493        0.9019313        153.3294
4.677                  0.9016014        152.6829        0.2495569         53.1038        0.2495566        53.10368        0.9016006        152.6829
4.6784                 0.9013275        152.1026        0.2419851        53.05676        0.2419848        53.05665        0.9013265        152.1026
4.6798                 0.9012349          151.58        0.2354167        53.00323        0.2354164        53.00312        0.9012341        151.5799
4.6812                 0.9014191        151.1055        0.2297075        52.90677        0.2297072        52.90668        0.9014181        151.1054
4.6826                 0.9019442        150.6695        0.2247013        52.73759         0.224701         52.7375        0.9019431        150.6695
4.684                  0.9028435        150.2624        0.2202391        52.47391        0.2202387        52.47383        0.9028426        150.2624
4.6854                 0.9041222        149.8751        0.2161666        52.10253        0.2161663        52.10247        0.9041213        149.8751
4.6868                 0.9057583        149.4991        0.2123415        51.61853        0.2123411        51.61848        0.9057575        149.4991
4.6882                 0.9077084        149.1271        0.2086377        51.02436        0.2086374        51.02431        0.9077077        149.1271
4.6896                 0.9099109        148.7531        0.2049491        50.32867        0.2049488        50.32862        0.9099102        148.7531
4.691                  0.9122912        148.3724        0.2011909        49.54506        0.2011906        49.54502        0.9122906        148.3724
4.6924                 0.9147673        147.9819        0.1973001        48.69079        0.1972997        48.69077        0.9147669         147.982
4.6938                 0.9172541        147.5799        0.1932348        47.78575        0.1932345        47.78573        0.9172538        147.5799
4.6952                  0.919668        147.1658        0.1889732        46.85148        0.1889729        46.85147         0.919668        147.1658
4.6966                 0.9219315        146.7405        0.1845118        45.91044        0.1845115        45.91043        0.9219315        146.7406
4.698                  0.9239757        146.3058        0.1798632        44.98533         0.179863        44.98532        0.9239759        146.3059
4.6994                  0.925744        145.8643        0.1750544        44.09849        0.1750542        44.09849        0.9257441        145.8643
4.7008                 0.9271926        145.4191        0.1701242         43.2714        0.1701239        43.27138        0.9271928        145.4191
4.7022                 0.9282929        144.9738         0.165121        42.52393        0.1651207        42.52393        0.9282932        144.9738
4.7036                 0.9290313        144.5324        0.1601003        41.87387        0.1601001        41.87387        0.9290317        144.5324
4.705                  0.9294093        144.0984        0.1551226        41.33597        0.1551224        41.33597        0.9294097        144.0984
4.7064                 0.9294424        143.6757        0.1502501        40.92125        0.1502499        40.92125        0.9294429        143.6757
4.7078                 0.9291586        143.2674        0.1455445        40.63607        0.1455443        40.63607        0.9291592        143.2674
4.7092                 0.9285973        142.8763        0.1410637         40.4813        0.1410635        40.48132        0.9285977        142.8763
4.7106                 0.9278059        142.5048        0.1368594        40.45174        0.1368592        40.45177        0.9278066        142.5047
4.712                  0.9268392        142.1543        0.1329741        40.53571        0.1329739        40.53571        0.9268396        142.1542
4.7134                 0.9257545        141.8257        0.1294385        40.71523        0.1294383        40.71525        0.9257551        141.8256
4.7148                 0.9246111        141.5191          0.12627        40.96684        0.1262698         40.9669        0.9246117         141.519
4.7162                 0.9234661        141.2339        0.1234715         41.2629        0.1234713        41.26296        0.9234666        141.2339
4.7176                  0.922373        140.9688        0.1210313        41.57339        0.1210312        41.57344        0.9223734        140.9688
4.719                  0.9213785        140.7219         0.118924        41.86812        0.1189238        41.86818        0.9213789        140.7219
4.7204                  0.920522        140.4908        0.1171124        42.11901        0.1171122        42.11906        0.9205223        140.4907
4.7218                 0.9198329        140.2726        0.1155502        42.30176          0.11555        42.30187        0.9198334        140.2725
4.7232                  0.919331        140.0643        0.1141851        42.39753         0.114185        42.39764        0.9193314        140.0643
4.7246                 0.9190252        139.8628        0.1129621        42.39349         0.112962         42.3936        0.9190256        139.8628
4.726                   0.918914        139.6649        0.1118266         42.2832        0.1118265        42.28328        0.9189142        139.6649
4.7274                 0.9189861        139.4679        0.1107268        42.06617        0.1107267        42.06628        0.9189864        139.4678
4.7288                 0.9192222        139.2689        0.1096161        41.74731        0.1096161        41.74739        0.9192225        139.2689
4.7302                 0.9195953        139.0659        0.1084547        41.33602        0.1084548         41.3361        0.9195956        139.0658
4.7316                 0.9200729        138.8571        0.1072106        40.84528        0.1072106        40.84539        0.9200733         138.857
4.733                  0.9206196        138.6413        0.1058599        40.29082        0.1058599        40.29088          0.92062        138.6412
4.7344                 0.9211976        138.4178        0.1043872        39.69017        0.1043873        39.69023        0.9211977        138.4177
4.7358                 0.9217693        138.1865        0.1027856        39.06209        0.1027857        39.06214        0.9217694        138.1865
4.7372                 0.9222992        137.9478        0.1010556        38.42591        0.1010557        38.42597        0.9222994        137.9478
4.7386                 0.9227553        137.7024       0.09920531        37.80084       0.09920542        37.80086        0.9227554        137.7024
4.74                   0.9231099        137.4516       0.09724902        37.20552       0.09724913        37.20552          0.92311        137.4515
4.7414                 0.9233413        137.1967       0.09520659        36.65752       0.09520671        36.65752        0.9233413        137.1966
4.7428                 0.9234339        136.9394        0.0931024        36.17263       0.09310252        36.17263        0.9234338        136.9394
4.7442                 0.9233789        136.6816        0.0909642        35.76455        0.0909643        35.76453        0.9233786        136.6815
4.7456                 0.9231739         136.425        0.0888219         35.4441       0.08882201        35.44405        0.9231736        136.4249
4.747                  0.9228233        136.1713       0.08670634        35.21857       0.08670642        35.21851        0.9228228        136.1712
4.7484                  0.922337        135.9222       0.08464789        35.09127       0.08464797         35.0912        0.9223367        135.9221
4.7498                 0.9217306        135.6791       0.08267508        35.06103       0.08267513        35.06095        0.9217299         135.679
4.7512                 0.9210233        135.4431       0.08081327        35.12188       0.08081329        35.12179        0.9210228         135.443
4.7526                 0.9202378        135.2151       0.07908337        35.26306       0.07908337        35.26297        0.9202371         135.215
4.754                  0.9193986        134.9955       0.07750082        35.46942       0.07750081        35.46933        0.9193978        134.9955
4.7554                  0.918531        134.7847       0.07607478        35.72209       0.07607476        35.72199        0.9185301        134.7846
4.7568                 0.9176596        134.5823       0.07480775         35.9996       0.07480768        35.99952         0.917659        134.5823
4.7582                 0.9168082         134.388       0.07369547        36.27929       0.07369539         36.2792        0.9168073         134.388
4.7596                 0.9159974        134.2011       0.07272753        36.53874       0.07272744        36.53866        0.9159966        134.2011
4.761                  0.9152443        134.0205       0.07188809        36.75724       0.07188798        36.75717        0.9152436        134.0205
4.7624                 0.9145631         133.845       0.07115703        36.91707       0.07115692        36.91701        0.9145623         133.845
4.7638                 0.9139623        133.6734       0.07051131        37.00437       0.07051119        37.00433        0.9139617        133.6735
4.7652                 0.9134467        133.5044       0.06992635        37.00971       0.06992622        37.00968        0.9134463        133.5044
4.7666                 0.9130166        133.3365        0.0693774        36.92816       0.06937728        36.92814        0.9130162        133.3365
4.768                  0.9126677        133.1685       0.06884076        36.75918       0.06884064        36.75919        0.9126674        133.1686
4.7694                 0.9123916        132.9993       0.06829475        36.50623       0.06829463        36.50623        0.9123917        132.9993
4.7708                 0.9121775        132.8277       0.06772054        36.17606       0.06772043        36.17609        0.9121778        132.8278
4.7722                 0.9120113        132.6531       0.06710267        35.77827       0.06710257         35.7783        0.9120116        132.6531
4.7736                 0.9118773        132.4747       0.06642944         35.3245       0.06642935        35.32453        0.9118778        132.4748
4.775                  0.9117588        132.2922       0.06569299        34.82788       0.06569291        34.82792        0.9117593        132.2923
4.7764                 0.9116388        132.1056       0.06488934        34.30248       0.06488927        34.30252        0.9116395        132.1056
4.7778                 0.9115007        131.9147        0.0640182        33.76273       0.06401814        33.76277        0.9115016        131.9147
4.7792                 0.9113296        131.7199       0.06308276        33.22299       0.06308272        33.22303        0.9113305        131.7199
4.7806                 0.9111118        131.5217       0.06208928        32.69709       0.06208924        32.69713        0.9111128        131.5217
4.782                   0.910836        131.3206       0.06104674        32.19794        0.0610467        32.19798        0.9108372        131.3206
4.7834                 0.9104936        131.1173       0.05996626        31.73709       0.05996623        31.73711        0.9104948        131.1173
4.7848                 0.9100787        130.9126       0.05886071        31.32433       0.05886068        31.32435        0.9100798        130.9126
4.7862                 0.9095878        130.7073       0.05774401        30.96735       0.05774399        30.96738         0.909589        130.7073
4.7876                 0.9090206        130.5021       0.05663065        30.67138       0.05663063        30.67139        0.9090218        130.5021
4.789                  0.9083792        130.2978         0.055535        30.43882       0.05553498        30.43882        0.9083802        130.2978
4.7904                 0.9076678        130.0951       0.05447079        30.26906       0.05447077        30.26906        0.9076687        130.0951
4.7918                 0.9068927        129.8946       0.05345045        30.15839       0.05345043        30.15838        0.9068936        129.8945
4.7932                 0.9060616        129.6966        0.0524847        30.09996       0.05248466        30.09996        0.9060624        129.6966
4.7946                 0.9051832        129.5016       0.05158199        30.08407       0.05158196        30.08406        0.9051839        129.5016
4.796                  0.9042671        129.3099       0.05074828        30.09848       0.05074823        30.09847        0.9042677        129.3098
4.7974                 0.9033226        129.1213       0.04998673        30.12908       0.04998668        30.12907        0.9033231        129.1213
4.7988                 0.9023591         128.936       0.04929774        30.16052       0.04929769        30.16052        0.9023595         128.936
4.8002                 0.9013852        128.7539       0.04867901        30.17706       0.04867895        30.17705        0.9013855        128.7538
4.8016                 0.9004086        128.5745       0.04812576        30.16332        0.0481257        30.16332        0.9004089        128.5744
4.803                  0.8994358        128.3975       0.04763113        30.10507       0.04763107        30.10508         0.899436        128.3975
4.8044                 0.8984719        128.2227        0.0471866        29.98983       0.04718653        29.98985        0.8984721        128.2226
4.8058                 0.8975205        128.0494       0.04678251        29.80727       0.04678244        29.80729        0.8975206        128.0494
4.8072                 0.8965836        127.8773       0.04640854         29.5495       0.04640847        29.54952        0.8965838        127.8773
4.8086                 0.8956617        127.7058       0.04605422        29.21111       0.04605416        29.21115        0.8956619        127.7058
4.81                   0.8947538        127.5344       0.04570938        28.78912       0.04570932        28.78917        0.8947542        127.5344
4.8114                 0.8938577        127.3627       0.04536447        28.28271        0.0453644        28.28276        0.8938581        127.3627
4.8128                 0.8929699        127.1902       0.04501086        27.69296        0.0450108        27.69302        0.8929705        127.1902
4.8142                 0.8920859        127.0166       0.04464109         27.0225       0.04464103        27.02257        0.8920865        127.0166
4.8156                    0.8912        126.8415       0.04424895        26.27516        0.0442489        26.27522        0.8912008        126.8416
4.817                  0.8903062        126.6648        0.0438296        25.45558       0.04382955        25.45566        0.8903071        126.6648
4.8184                 0.8893978        126.4861        0.0433795        24.56896       0.04337946        24.56904        0.8893989        126.4861
4.8198                 0.8884679        126.3054       0.04289646        23.62071       0.04289642        23.62078        0.8884691        126.3054
4.8212                 0.8875092        126.1226       0.04237951         22.6162       0.04237948        22.61627        0.8875105        126.1226
4.8226                 0.8865143        125.9376       0.04182881        21.56054       0.04182878        21.56062        0.8865156        125.9376
4.824                  0.8854757        125.7507       0.04124555        20.45843       0.04124553         20.4585        0.8854772        125.7506
4.8254                 0.8843864        125.5617       0.04063183        19.31389       0.04063181        19.31396         0.884388        125.5617
4.8268                 0.8832393        125.3711       0.03999047        18.13022       0.03999045        18.13028        0.8832408         125.371
4.8282                 0.8820277        125.1789       0.03932494        16.90976       0.03932493        16.90982        0.8820291        125.1789
4.8296                 0.8807451        124.9856       0.03863924        15.65382       0.03863923        15.65388        0.8807465        124.9855
4.831                  0.8793857        124.7914        0.0379377        14.36255       0.03793769        14.36261        0.8793872        124.7913
4.8324                 0.8779444        124.5969       0.03722496        13.03478       0.03722494        13.03484        0.8779457        124.5968
4.8338                 0.8764165        124.4024       0.03650575        11.66792       0.03650574        11.66797        0.8764177        124.4023
4.8352                 0.8747984        124.2085        0.0357849         10.2578       0.03578488        10.25785        0.8747994        124.2084
4.8366                 0.8730873        124.0158       0.03506717        8.798587       0.03506715        8.798638        0.8730882        124.0157
4.838                  0.8712816         123.825       0.03435722        7.282648       0.03435719        7.282698        0.8712824        123.8249
4.8394                 0.8693812        123.6366       0.03365946        5.700438       0.03365944        5.700489        0.8693818        123.6365
4.8408                 0.8673868        123.4514       0.03297811        4.040431       0.03297809        4.040484        0.8673873        123.4513
4.8422                 0.8653014          123.27       0.03231706        2.289074       0.03231703        2.289129        0.8653017        123.2699
4.8436                 0.8631287        123.0932       0.03167989       0.4307827       0.03167986       0.4308399        0.8631288        123.0931
4.845                  0.8608744        122.9215        0.0310699       -1.551996       0.03106988       -1.551936        0.8608744        122.9214
4.8464                 0.8585462        122.7558       0.03049015       -3.678659       0.03049013       -3.678596        0.8585461        122.7557
4.8478                 0.8561524        122.5964       0.02994353       -5.970231       0.02994351       -5.970165        0.8561522        122.5963
4.8492                 0.8537034        122.4438       0.02943292       -8.449058        0.0294329        -8.44899        0.8537031        122.4438
4.8506                 0.8512104        122.2986       0.02896133       -11.13839       0.02896131       -11.13832        0.8512101        122.2985
4.852                  0.8486856        122.1608       0.02853216       -14.06182       0.02853214       -14.06174        0.8486852        122.1607
4.8534                 0.8461413        122.0306       0.02814944        -17.2426       0.02814942       -17.24252        0.8461409        122.0306
4.8548                 0.8435904         121.908        0.0278181       -20.70275       0.02781808       -20.70268        0.8435901         121.908
4.8562                 0.8410449        121.7927       0.02754428       -24.46202       0.02754427       -24.46195        0.8410447        121.7927
4.8576                 0.8385163        121.6844        0.0273356       -28.53659       0.02733559       -28.53652         0.838516        121.6844
4.859                  0.8360142        121.5825       0.02720132       -32.93758       0.02720131       -32.93752        0.8360141        121.5825
4.8604                 0.8335467        121.4864       0.02715246       -37.66949       0.02715245       -37.66943        0.8335467        121.4863
4.8618                 0.8311194        121.3951       0.02720171       -42.72859        0.0272017       -42.72853        0.8311193        121.3951
4.8632                 0.8287345         121.308        0.0273632       -48.10151        0.0273632       -48.10147        0.8287347         121.308
4.8646                  0.826392        121.2239       0.02765197       -53.76445       0.02765197       -53.76442        0.8263921        121.2239
4.866                  0.8240878        121.1421       0.02808326       -59.68314       0.02808326       -59.68311        0.8240882        121.1421
4.8674                 0.8218147        121.0615       0.02867165       -65.81396       0.02867165       -65.81393        0.8218152        121.0615
4.8688                  0.819562        120.9813       0.02943007       -72.10622       0.02943007       -72.10621        0.8195626        120.9813
4.8702                 0.8173161         120.901       0.03036889       -78.50541        0.0303689        -78.5054        0.8173166         120.901
4.8716                 0.8150602        120.8201        0.0314952       -84.95694        0.0314952       -84.95694        0.8150609        120.8201