! TOUCHSTONE file generated by CST MICROWAVE STUDIO
! Date and time: Sat Nov 30 13:12:02 2024
! Project name: test_tuning.cst
! Parameters = {airCoaxOuterDiameter=3; chamferAngle=45; chamferWidth=24; connectorLength=10; drillingHoleDiameter=4.1; feedLength=60; flareDiameter=130; flareLength=70; gratingDistance=0; gratingGap=1.90274; outletLength=30; polarizerLength=134; probe1Diameter=1.3; probe1Distance=14; probe1Length=14.5; probe2Diameter=1.3; probe2Distance=0; probe2Length=14.5; probeLength=14.5; smaInnerDiameter=1.3; smaOuterDiameter=4.1; transitionCoefficient=1.33; waveguideFeedLength=30; waveguideSide=50; waveguideThickness=3; wireCount=25; wireDiameter=1.17699}
! Header version: 2024
! Port assignment regex: !\s*Touchstone port\s*([0-9]+)\s*=\s*(CST MWS port|CST DES external port|CST DES block port)\s*(.+)\s* \(\"(.*)\"\)(\s*mode\s*([0-9]+))?.*
! Touchstone port assignment:
! Touchstone port 1 = CST MWS port 1 ("Input1")
! Touchstone port 2 = CST MWS port 2 ("Input2")
# GHz S MA R 50
4.6                    0.4311543       -141.9516        0.4694807        21.16463        0.4694811        21.16465        0.4311545       -141.9517
4.6014                 0.4334075       -142.3788        0.4715129        20.56934        0.4715133        20.56937        0.4334078        -142.379
4.6028                 0.4357247       -142.8217        0.4734672        19.95581        0.4734677        19.95582        0.4357249       -142.8218
4.6042                 0.4380993        -143.281        0.4753262        19.32529        0.4753266         19.3253        0.4380995       -143.2811
4.6056                 0.4405243       -143.7574        0.4770739        18.67934        0.4770744        18.67934        0.4405245       -143.7575
4.607                  0.4429926       -144.2514         0.478696         18.0197        0.4786965         18.0197        0.4429929       -144.2515
4.6084                 0.4454967       -144.7636        0.4801801        17.34829        0.4801806        17.34828         0.445497       -144.7637
4.6098                  0.448029       -145.2943        0.4815159        16.66722        0.4815164        16.66721        0.4480293       -145.2944
4.6112                 0.4505818       -145.8439        0.4826957        15.97868        0.4826963        15.97866         0.450582        -145.844
4.6126                  0.453147       -146.4126        0.4837142        15.28496        0.4837148        15.28494        0.4531473       -146.4127
4.614                  0.4557171       -147.0005        0.4845687        14.58841        0.4845691        14.58838        0.4557173       -147.0007
4.6154                 0.4582839       -147.6079        0.4852589        13.89138        0.4852594        13.89134        0.4582842        -147.608
4.6168                 0.4608399       -148.2347        0.4857878        13.19621        0.4857882        13.19617        0.4608402       -148.2348
4.6182                 0.4633773        -148.881        0.4861606        12.50517         0.486161        12.50513        0.4633776       -148.8811
4.6196                 0.4658884       -149.5468        0.4863853        11.82048        0.4863857        11.82043        0.4658887       -149.5469
4.621                  0.4683656        -150.232        0.4864725        11.14419        0.4864728        11.14414         0.468366       -150.2321
4.6224                 0.4708013       -150.9365         0.486435        10.47822        0.4864352        10.47816        0.4708017       -150.9366
4.6238                 0.4731882       -151.6604         0.486288        9.824292        0.4862883        9.824237        0.4731887       -151.6605
4.6252                 0.4755188       -152.4034        0.4860488        9.183915         0.486049        9.183856        0.4755193       -152.4035
4.6266                 0.4777857       -153.1654        0.4857362        8.558328        0.4857364        8.558269        0.4777862       -153.1655
4.628                  0.4799816       -153.9464        0.4853707        7.948504        0.4853707        7.948445        0.4799821       -153.9465
4.6294                 0.4820991       -154.7461        0.4849736        7.355106        0.4849736        7.355046        0.4820997       -154.7462
4.6308                 0.4841308       -155.5644        0.4845674        6.778462        0.4845674        6.778402        0.4841314       -155.5645
4.6322                 0.4860695       -156.4012        0.4841749        6.218562        0.4841748        6.218503        0.4860702       -156.4012
4.6336                 0.4879077       -157.2561        0.4838189        5.675037        0.4838188        5.674981        0.4879085       -157.2562
4.635                   0.489638       -158.1292        0.4835218         5.14716        0.4835216        5.147106        0.4896389       -158.1293
4.6364                 0.4912531       -159.0201        0.4833053         4.63384        0.4833051        4.633789         0.491254       -159.0201
4.6378                 0.4927455       -159.9285          0.48319        4.133639        0.4831898        4.133591        0.4927465       -159.9286
4.6392                 0.4941079       -160.8544        0.4831949        3.644788        0.4831947        3.644744        0.4941089       -160.8545
4.6406                 0.4953329       -161.7973        0.4833372        3.165213        0.4833369        3.165174        0.4953339       -161.7974
4.642                   0.496413       -162.7569        0.4836318         2.69257        0.4836315        2.692535        0.4964141        -162.757
4.6434                 0.4973412       -163.7331        0.4840911        2.224283        0.4840908        2.224253        0.4973423       -163.7332
4.6448                 0.4981103       -164.7253        0.4847248        1.757598        0.4847245        1.757574        0.4981114       -164.7254
4.6462                 0.4987134       -165.7332        0.4855398        1.289633        0.4855395        1.289613        0.4987145       -165.7333
4.6476                 0.4991437       -166.7564        0.4865398       0.8174279        0.4865394        0.817414        0.4991448       -166.7565
4.649                  0.4993947       -167.7944        0.4877256       0.3380129        0.4877252       0.3380041        0.4993959       -167.7946
4.6504                 0.4994605       -168.8468        0.4890948      -0.1515423        0.4890944       -0.151546        0.4994617       -168.8469
4.6518                 0.4993351        -169.913        0.4906421      -0.6540728        0.4906418      -0.6540717        0.4993363       -169.9131
4.6532                 0.4990133       -170.9925        0.4923596       -1.172266        0.4923591       -1.172261        0.4990145       -170.9926
4.6546                 0.4984902       -172.0846         0.494236       -1.708621        0.4942357       -1.708611        0.4984914       -172.0847
4.656                  0.4977616       -173.1888        0.4962586       -2.265404        0.4962583        -2.26539        0.4977628       -173.1889
4.6574                 0.4968239       -174.3044        0.4984118       -2.844625        0.4984115       -2.844608         0.496825       -174.3046
4.6588                 0.4956738       -175.4308        0.5006785        -3.44801        0.5006783        -3.44799        0.4956749       -175.4309
4.6602                 0.4943092       -176.5672        0.5030401       -4.076991        0.5030398       -4.076969        0.4943102       -176.5674
4.6616                 0.4927284       -177.7131        0.5054765       -4.732697        0.5054763       -4.732673        0.4927294       -177.7132
4.663                  0.4909306       -178.8676        0.5079672       -5.415954        0.5079671       -5.415927        0.4909316       -178.8677
4.6644                 0.4889156          179.97         0.510491       -6.127294        0.5104908       -6.127267        0.4889166        179.9699
4.6658                 0.4866843        178.8004        0.5130263       -6.866967        0.5130262       -6.866939        0.4866852        178.8002
4.6672                 0.4842381        177.6242         0.515552       -7.634959        0.5155519        -7.63493         0.484239        177.6241
4.6686                 0.4815794        176.4422        0.5180471       -8.431011         0.518047       -8.430983        0.4815803        176.4421
4.67                   0.4787112        175.2551        0.5204913       -9.254642        0.5204913       -9.254615        0.4787121        175.2549
4.6714                 0.4756374        174.0634        0.5228652       -10.10518        0.5228652       -10.10516        0.4756382        174.0633
4.6728                 0.4723627        172.8679        0.5251506       -10.98178        0.5251506       -10.98176        0.4723635        172.8678
4.6742                 0.4688923        171.6691        0.5273302       -11.88345        0.5273302       -11.88343         0.468893        171.6689
4.6756                  0.465232        170.4674        0.5293883        -12.8091        0.5293884       -12.80908        0.4652327        170.4673
4.677                  0.4613884        169.2634        0.5313108       -13.75752        0.5313108        -13.7575        0.4613891        169.2633
4.6784                 0.4573685        168.0575        0.5330845       -14.72744        0.5330846       -14.72742        0.4573691        168.0574
4.6798                 0.4531795        166.8499        0.5346985       -15.71757        0.5346986       -15.71755        0.4531802        166.8498
4.6812                 0.4488294         165.641        0.5361429       -16.72656         0.536143       -16.72655          0.44883        165.6408
4.6826                 0.4443261        164.4307        0.5374099       -17.75308          0.53741       -17.75307        0.4443267        164.4306
4.684                  0.4396778        163.2193        0.5384929       -18.79581         0.538493        -18.7958        0.4396784        163.2192
4.6854                 0.4348927        162.0067        0.5393867       -19.85344        0.5393868       -19.85343        0.4348933        162.0066
4.6868                 0.4299792        160.7927         0.540088       -20.92473        0.5400881       -20.92473        0.4299798        160.7926
4.6882                 0.4249453         159.577        0.5405942       -22.00847        0.5405943       -22.00847        0.4249459        159.5769
4.6896                 0.4197989        158.3593        0.5409044       -23.10354        0.5409046       -23.10354        0.4197996        158.3592
4.691                  0.4145478        157.1391        0.5410186       -24.20889        0.5410187       -24.20889        0.4145485         157.139
4.6924                 0.4091991        155.9157        0.5409379        -25.3235        0.5409379        -25.3235        0.4091998        155.9156
4.6938                 0.4037597        154.6884        0.5406641       -26.44654        0.5406642       -26.44654        0.4037605        154.6884
4.6952                 0.3982358        153.4564        0.5401998       -27.57715        0.5401999       -27.57715        0.3982366        153.4564
4.6966                 0.3926331        152.2187        0.5395483        -28.7147        0.5395483        -28.7147        0.3926339        152.2187
4.698                  0.3869566        150.9742         0.538713       -29.85853         0.538713       -29.85853        0.3869575        150.9741
4.6994                 0.3812107        149.7216        0.5376979        -31.0081         0.537698        -31.0081        0.3812115        149.7216
4.7008                 0.3753989        148.4597        0.5365072       -32.16304        0.5365073       -32.16304        0.3753998        148.4596
4.7022                 0.3695243         147.187         0.535145       -33.32296         0.535145       -33.32296        0.3695253        147.1869
4.7036                 0.3635889        145.9019        0.5336151       -34.48761        0.5336151       -34.48761        0.3635899        145.9019
4.705                  0.3575943        144.6029        0.5319217        -35.6568        0.5319216        -35.6568        0.3575953        144.6028
4.7064                 0.3515413        143.2882        0.5300681       -36.83037        0.5300681       -36.83037        0.3515423        143.2882
4.7078                 0.3454299        141.9561        0.5280578       -38.00828        0.5280577       -38.00828         0.345431         141.956
4.7092                 0.3392599        140.6046        0.5258936       -39.19051        0.5258935       -39.19051        0.3392609        140.6045
4.7106                 0.3330301        139.2317        0.5235778       -40.37706        0.5235777       -40.37705        0.3330312        139.2317
4.712                  0.3267393        137.8356        0.5211125       -41.56795        0.5211124       -41.56795        0.3267404        137.8355
4.7134                 0.3203859         136.414         0.518499       -42.76325         0.518499       -42.76325         0.320387        136.4139
4.7148                 0.3139678        134.9648        0.5157384       -43.96301        0.5157383         -43.963        0.3139689        134.9647
4.7162                 0.3074831        133.4857        0.5128311       -45.16726         0.512831       -45.16725        0.3074842        133.4857
4.7176                 0.3009298        131.9745        0.5097771       -46.37605        0.5097771       -46.37603        0.3009309        131.9745
4.719                  0.2943059        130.4287        0.5065763       -47.58934        0.5065763       -47.58933        0.2943069        130.4287
4.7204                 0.2876097        128.8458        0.5032281       -48.80711         0.503228       -48.80709        0.2876108        128.8458
4.7218                 0.2808401        127.2232        0.4997315       -50.02925        0.4997315       -50.02923        0.2808412        127.2231
4.7232                 0.2739963        125.5581        0.4960857        -51.2556        0.4960857       -51.25558        0.2739974         125.558
4.7246                 0.2670782        123.8474        0.4922897       -52.48595        0.4922897       -52.48594        0.2670792        123.8474
4.726                  0.2600864        122.0882        0.4883425       -53.72001        0.4883424          -53.72        0.2600874        122.0882
4.7274                 0.2530225        120.2769        0.4842432       -54.95741        0.4842432       -54.95739        0.2530234        120.2769
4.7288                  0.245889          118.41        0.4799915        -56.1977        0.4799916       -56.19767        0.2458899        118.4099
4.7302                 0.2386896        116.4832        0.4755872       -57.44035        0.4755872       -57.44033        0.2386905        116.4831
4.7316                 0.2314293        114.4921        0.4710305       -58.68476        0.4710305       -58.68474        0.2314301        114.4921
4.733                  0.2241143        112.4318        0.4663222       -59.93022        0.4663223        -59.9302        0.2241152        112.4318
4.7344                 0.2167527        110.2966        0.4614641       -61.17596        0.4614641       -61.17595        0.2167534        110.2966
4.7358                 0.2093537        108.0804        0.4564581       -62.42116        0.4564582       -62.42113        0.2093544        108.0803
4.7372                 0.2019286        105.7758        0.4513074       -63.66486        0.4513075       -63.66484        0.2019293        105.7758
4.7386                 0.1944906         103.375        0.4460158        -64.9061        0.4460159       -64.90608        0.1944913         103.375
4.74                   0.1870549        100.8687         0.440588       -66.14385        0.4405882       -66.14381        0.1870555        100.8687
4.7414                 0.1796391        98.24659        0.4350298       -67.37698        0.4350299       -67.37695        0.1796397        98.24659
4.7428                 0.1722632        95.49669        0.4293476        -68.6044        0.4293477       -68.60439        0.1722637        95.49669
4.7442                   0.16495        92.60555        0.4235489       -69.82496         0.423549       -69.82493        0.1649505        92.60558
4.7456                 0.1577254        89.55791        0.4176421       -71.03747        0.4176423       -71.03747        0.1577259        89.55794
4.747                  0.1506188        86.33666        0.4116364       -72.24082        0.4116366       -72.24079        0.1506193        86.33672
4.7484                 0.1436634        82.92272        0.4055419       -73.43381        0.4055421       -73.43379        0.1436638        82.92284
4.7498                 0.1368965        79.29527        0.3993692       -74.61537        0.3993694       -74.61535        0.1368969        79.29539
4.7512                 0.1303603        75.43187        0.3931298       -75.78443          0.39313       -75.78441        0.1303606        75.43203
4.7526                 0.1241019        71.30944        0.3868356       -76.94001        0.3868358       -76.93999        0.1241023        71.30962
4.754                  0.1181741        66.90516        0.3804988       -78.08119         0.380499       -78.08119        0.1181743        66.90535
4.7554                 0.1126344        62.19839        0.3741321       -79.20722        0.3741323       -79.20722        0.1126346        62.19863
4.7568                 0.1075457        57.17352        0.3677483        -80.3174        0.3677485        -80.3174        0.1075459        57.17379
4.7582                 0.1029742        51.82318        0.3613601       -81.41122        0.3613603       -81.41122        0.1029743        51.82345
4.7596                0.09898746        46.15264        0.3549802       -82.48832        0.3549804       -82.48832        0.0989875        46.15295
4.761                  0.0956511          40.184        0.3486207       -83.54848        0.3486209        -83.5485       0.09565109        40.18433
4.7624                0.09302416        33.95953        0.3422936       -84.59175        0.3422938       -84.59175       0.09302409        33.95987
4.7638                0.09115383        27.54271          0.33601        -85.6183        0.3360103        -85.6183       0.09115371        27.54306
4.7652                0.09007035        21.01581        0.3297804       -86.62857        0.3297806       -86.62857       0.09007017        21.01615
4.7666                0.08978298        14.47354        0.3236143       -87.62315        0.3236145       -87.62317       0.08978275        14.47386
4.768                 0.09027842        8.013737          0.31752       -88.60291        0.3175202       -88.60291       0.09027814        8.014041
4.7694                0.09152205        1.727282         0.311505       -89.56888        0.3115052       -89.56889       0.09152173        1.727562
4.7708                0.09346168       -4.310358        0.3055752       -90.52232        0.3055754       -90.52232       0.09346133       -4.310107
4.7722                0.09603295       -10.04408        0.2997354       -91.46463        0.2997355       -91.46465       0.09603258       -10.04386
4.7736                0.09916529       -15.44019        0.2939888       -92.39745         0.293989       -92.39748       0.09916491          -15.44
4.775                   0.102787       -20.48442        0.2883374       -93.32253        0.2883376       -93.32256        0.1027866       -20.48426
4.7764                 0.1068293       -25.17803        0.2827819       -94.24171         0.282782       -94.24174        0.1068289       -25.17791
4.7778                 0.1112288       -29.53353        0.2773213       -95.15698        0.2773214         -95.157        0.1112285       -29.53342
4.7792                 0.1159293       -33.57063        0.2719537       -96.07027        0.2719538        -96.0703         0.115929       -33.57055
4.7806                 0.1208816       -37.31307        0.2666758       -96.98368        0.2666759        -96.9837        0.1208813       -37.31301
4.782                  0.1260437       -40.78617        0.2614832       -97.89913        0.2614833       -97.89916        0.1260434       -40.78614
4.7834                 0.1313804       -44.01531        0.2563706        -98.8186        0.2563707       -98.81862        0.1313801        -44.0153
4.7848                 0.1368621       -47.02488        0.2513321       -99.74389        0.2513322       -99.74391        0.1368618       -47.02489
4.7862                 0.1424643       -49.83769        0.2463608       -100.6767        0.2463609       -100.6768         0.142464       -49.83772
4.7876                 0.1481667       -52.47479        0.2414498       -101.6186        0.2414499       -101.6187        0.1481665       -52.47483
4.789                  0.1539527       -54.95527        0.2365916        -102.571        0.2365917        -102.571        0.1539526       -54.95532
4.7904                 0.1598083       -57.29646         0.231779       -103.5349         0.231779        -103.535        0.1598082       -57.29652
4.7918                 0.1657218       -59.51387        0.2270045       -104.5113        0.2270046       -104.5114        0.1657217       -59.51395
4.7932                 0.1716832       -61.62145        0.2222614       -105.5009        0.2222614       -105.5009        0.1716831       -61.62156
4.7946                 0.1776838       -63.63168        0.2175431        -106.504        0.2175431        -106.504        0.1776838       -63.63179
4.796                  0.1837159       -65.55567        0.2128439       -107.5209        0.2128439       -107.5209        0.1837159       -65.55581
4.7974                 0.1897722       -67.40338        0.2081587       -108.5514        0.2081587       -108.5515        0.1897722       -67.40353
4.7988                 0.1958457       -69.18366        0.2034834       -109.5954        0.2034834       -109.5954        0.1958458       -69.18381
4.8002                 0.2019298       -70.90436        0.1988148       -110.6522        0.1988149       -110.6522        0.2019299       -70.90456
4.8016                 0.2080176       -72.57252         0.194151       -111.7212         0.194151       -111.7212        0.2080176       -72.57271
4.803                   0.214102        -74.1943        0.1894909       -112.8015        0.1894909       -112.8015        0.2141021        -74.1945
4.8044                 0.2201758       -75.77515        0.1848348       -113.8921        0.1848348       -113.8922         0.220176       -75.77536
4.8058                 0.2262316       -77.31989        0.1801839        -114.992        0.1801839       -114.9921        0.2262318        -77.3201
4.8072                 0.2322616       -78.83267        0.1755407       -116.1001        0.1755407       -116.1001        0.2322617       -78.83292
4.8086                 0.2382575       -80.31718        0.1709086       -117.2152        0.1709086       -117.2152        0.2382576        -80.3174
4.81                    0.244211        -81.7765        0.1662922       -118.3362        0.1662922       -118.3362        0.2442111       -81.77674
4.8114                 0.2501136       -83.21331        0.1616969       -119.4623        0.1616969       -119.4623        0.2501137       -83.21356
4.8128                 0.2559564       -84.62987        0.1571288       -120.5927        0.1571288       -120.5927        0.2559565       -84.63012
4.8142                  0.261731       -86.02802        0.1525948       -121.7269        0.1525947        -121.727         0.261731        -86.0283
4.8156                 0.2674282       -87.40932        0.1481022        -122.865        0.1481021        -122.865        0.2674283       -87.40957
4.817                  0.2730398       -88.77492        0.1436586       -124.0071        0.1436586       -124.0071        0.2730398        -88.7752
4.8184                 0.2785573       -90.12583         0.139272       -125.1542         0.139272       -125.1542        0.2785572       -90.12611
4.8198                 0.2839727       -91.46268        0.1349503       -126.3078        0.1349502       -126.3078        0.2839726       -91.46296
4.8212                 0.2892784       -92.78599         0.130701         -127.47        0.1307009       -127.4701        0.2892784       -92.78627
4.8226                 0.2944676       -94.09605        0.1265315       -128.6442        0.1265314       -128.6442        0.2944675       -94.09631
4.824                  0.2995338       -95.39297        0.1224484       -129.8341        0.1224483       -129.8341        0.2995337       -95.39324
4.8254                 0.3044715       -96.67681        0.1184578       -131.0449        0.1184578        -131.045        0.3044713       -96.67707
4.8268                 0.3092757       -97.94742         0.114565       -132.2829        0.1145649        -132.283        0.3092755        -97.9477
4.8282                 0.3139426       -99.20468        0.1107739       -133.5554        0.1107738       -133.5555        0.3139424       -99.20493
4.8296                 0.3184691       -100.4484        0.1070878       -134.8713        0.1070877       -134.8714        0.3184689       -100.4486
4.831                  0.3228531       -101.6782        0.1035086       -136.2406        0.1035085       -136.2406        0.3228528       -101.6784
4.8324                 0.3270935       -102.8939        0.1000374       -137.6747        0.1000373       -137.6748        0.3270932       -102.8941
4.8338                   0.33119       -104.0953       0.09667389       -139.1868       0.09667379       -139.1869        0.3311898       -104.0955
4.8352                 0.3351436       -105.2821        0.0934173       -140.7911       0.09341717       -140.7911        0.3351433       -105.2823
4.8366                 0.3389557       -106.4541       0.09026594       -142.5035       0.09026582       -142.5035        0.3389555       -106.4543
4.838                  0.3426291       -107.6113       0.08721785       -144.3413       0.08721771       -144.3413        0.3426288       -107.6115
4.8394                 0.3461671       -108.7536       0.08427099       -146.3232       0.08427086       -146.3233        0.3461668       -108.7539
4.8408                 0.3495737       -109.8812       0.08142377       -148.4694       0.08142365       -148.4695        0.3495733       -109.8814
4.8422                 0.3528534       -110.9942       0.07867552       -150.8014        0.0786754       -150.8014        0.3528532       -110.9943
4.8436                 0.3560117       -112.0928       0.07602702       -153.3418       0.07602689       -153.3419        0.3560114        -112.093
4.845                  0.3590538       -113.1776       0.07348117       -156.1146       0.07348105       -156.1146        0.3590536       -113.1777
4.8464                 0.3619856        -114.249       0.07104364       -159.1442       0.07104352       -159.1443        0.3619854       -114.2492
4.8478                 0.3648127       -115.3078       0.06872355       -162.4557       0.06872344       -162.4558        0.3648125        -115.308
4.8492                 0.3675409       -116.3548       0.06653411       -166.0736         0.066534       -166.0736        0.3675407        -116.355
4.8506                 0.3701754        -117.391       0.06449321       -170.0208        0.0644931       -170.0208        0.3701753       -117.3912
4.852                  0.3727213       -118.4174       0.06262389        -174.317       0.06262377       -174.3171        0.3727213       -118.4175
4.8534                 0.3751829       -119.4352       0.06095436       -178.9766       0.06095426       -178.9766        0.3751828       -119.4353
4.8548                 0.3775636       -120.4456        0.0595179        175.9945        0.0595178        175.9945        0.3775636       -120.4458
4.8562                 0.3798662       -121.4502       0.05835186        170.6018       0.05835177        170.6018        0.3798662       -121.4504
4.8576                  0.382092       -122.4503        0.0574962        164.8654       0.05749612        164.8654        0.3820921       -122.4504
4.859                  0.3842417       -123.4474       0.05699118        158.8224       0.05699109        158.8224        0.3842418       -123.4476
4.8604                 0.3863143       -124.4431       0.05687436        152.5273       0.05687427        152.5273        0.3863144       -124.4432
4.8618                 0.3883074       -125.4388       0.05717747        146.0501        0.0571774        146.0501        0.3883075        -125.439
4.8632                 0.3902174       -126.4361       0.05792341        139.4715       0.05792335        139.4714        0.3902176       -126.4363
4.8646                 0.3920392       -127.4365         0.059124        132.8758       0.05912393        132.8757        0.3920394       -127.4367
4.866                  0.3937661       -128.4414       0.06077903        126.3434       0.06077897        126.3433        0.3937663       -128.4415
4.8674                 0.3953902        -129.452       0.06287672        119.9437       0.06287667        119.9437        0.3953904       -129.4521
4.8688                 0.3969019       -130.4695        0.0653952        113.7309       0.06539515        113.7308        0.3969022       -130.4697
4.8702                 0.3982908       -131.4951       0.06830472        107.7419       0.06830468        107.7419         0.398291       -131.4953
4.8716                 0.3995448       -132.5296       0.07157014        101.9978        0.0715701        101.9977        0.3995452       -132.5298