! TOUCHSTONE file generated by CST MICROWAVE STUDIO
! Date and time: Sat Nov 30 03:29:17 2024
! Project name: test_tuning.cst
! Parameters = {airCoaxOuterDiameter=3; chamferAngle=55; chamferWidth=24; connectorLength=10; drillingHoleDiameter=4.1; feedLength=60; flareDiameter=130; flareLength=70; gratingDistance=0; gratingGap=1.90274; outletLength=30; polarizerLength=134; probe1Diameter=1.3; probe1Distance=14; probe1Length=12; probe2Diameter=1.3; probe2Distance=0; probe2Length=12; probeLength=12; smaInnerDiameter=1.3; smaOuterDiameter=4.1; transitionCoefficient=1.33; waveguideFeedLength=30; waveguideSide=50; waveguideThickness=3; wireCount=25; wireDiameter=1.17699}
! Header version: 2024
! Port assignment regex: !\s*Touchstone port\s*([0-9]+)\s*=\s*(CST MWS port|CST DES external port|CST DES block port)\s*(.+)\s* \(\"(.*)\"\)(\s*mode\s*([0-9]+))?.*
! Touchstone port assignment:
! Touchstone port 1 = CST MWS port 1 ("Input1")
! Touchstone port 2 = CST MWS port 2 ("Input2")
# GHz S MA R 50
4.6                    0.2656814       -169.7507        0.6143672        59.05245        0.6153716        58.19724        0.3188923       -164.3593
4.6014                  0.272412       -170.6057        0.6153171         58.0132        0.6151507        57.14557        0.3262226       -165.3685
4.6028                 0.2791453       -171.4488        0.6161145        56.95927        0.6147568        56.09339         0.333604       -166.3704
4.6042                 0.2858931       -172.2807        0.6167421        55.89083        0.6141939        55.04115        0.3410418       -167.3668
4.6056                 0.2926671       -173.1026        0.6171823        54.80828        0.6134662        53.98922        0.3485406       -168.3594
4.607                   0.299479       -173.9161        0.6174179        53.71222        0.6125778        52.93799         0.356104       -169.3502
4.6084                 0.3063398       -174.7229        0.6174321        52.60348        0.6115331        51.88777        0.3637345       -170.3408
4.6098                 0.3132598       -175.5251        0.6172088         51.4831        0.6103368         50.8388        0.3714337       -171.3331
4.6112                  0.320248       -176.3248        0.6167337        50.35232        0.6089929        49.79136        0.3792014       -172.3288
4.6126                 0.3273122       -177.1243        0.6159937        49.21258         0.607506        48.74562        0.3870367       -173.3295
4.614                  0.3344581       -177.9259        0.6149781        48.06546        0.6058805        47.70176        0.3949369       -174.3369
4.6154                 0.3416899       -178.7321        0.6136781        46.91275        0.6041201        46.65992        0.4028982       -175.3524
4.6168                 0.3490097       -179.5451         0.612088        45.75633        0.6022291        45.62022        0.4109149       -176.3774
4.6182                 0.3564175        179.6329        0.6102042         44.5982        0.6002113        44.58272        0.4189804        -177.413
4.6196                 0.3639108        178.7998        0.6080265        43.44043        0.5980703        43.54753        0.4270865       -178.4604
4.621                  0.3714856        177.9538        0.6055575        42.28517        0.5958094        42.51467        0.4352236       -179.5205
4.6224                 0.3791355        177.0933        0.6028028        41.13456        0.5934318         41.4842        0.4433807        179.4058
4.6238                 0.3868521        176.2166        0.5997708        39.99077        0.5909404        40.45616         0.451546        178.3181
4.6252                 0.3946254        175.3229        0.5964736        38.85587        0.5883381        39.43055        0.4597062        177.2157
4.6266                 0.4024438         174.411        0.5929251        37.73192        0.5856273        38.40741        0.4678473        176.0984
4.628                  0.4102941        173.4804        0.5891425        36.62083        0.5828103        37.38678        0.4759541         174.966
4.6294                 0.4181622        172.5307         0.585145         35.5244        0.5798892        36.36868        0.4840108        173.8184
4.6308                 0.4260329        171.5616         0.580954        34.44423        0.5768658        35.35314         0.492001        172.6558
4.6322                 0.4338903        170.5733        0.5765926        33.38174        0.5737421        34.34023        0.4999078        171.4784
4.6336                 0.4417182        169.5661         0.572085        32.33812        0.5705195        33.33002        0.5077139        170.2866
4.635                  0.4494998        168.5402        0.5674568        31.31428        0.5671997        32.32257        0.5154017        169.0809
4.6364                 0.4572187        167.4965        0.5627337        30.31089         0.563784        31.31802        0.5229539        167.8618
4.6378                 0.4648584        166.4356        0.5579413        29.32828        0.5602738        30.31647        0.5303527        166.6301
4.6392                  0.472403        165.3583         0.553105        28.36648        0.5566706        29.31808        0.5375812        165.3866
4.6406                 0.4798366        164.2657        0.5482493        27.42522        0.5529759        28.32302        0.5446223        164.1321
4.642                  0.4871443        163.1587         0.543397         26.5039         0.549191         27.3315        0.5514597        162.8677
4.6434                  0.494312        162.0385        0.5385693        25.60161        0.5453177        26.34374        0.5580776        161.5942
4.6448                 0.5013261        160.9061        0.5337853        24.71713        0.5413576        25.35998         0.564461         160.313
4.6462                 0.5081741        159.7627        0.5290615        23.84899        0.5373127        24.38052        0.5705957        159.0249
4.6476                 0.5148442        158.6094        0.5244112        22.99546        0.5331852        23.40563        0.5764685        157.7313
4.649                  0.5213259        157.4474        0.5198453        22.15462        0.5289773        22.43567        0.5820675        156.4334
4.6504                 0.5276091        156.2777         0.515371         21.3244        0.5246918        21.47096        0.5873815        155.1324
4.6518                 0.5336852        155.1014        0.5109926        20.50261        0.5203314        20.51186        0.5924009        153.8295
4.6532                 0.5395459        153.9196        0.5067109          19.687        0.5158995        19.55876        0.5971174        152.5262
4.6546                 0.5451844        152.7334        0.5025237        18.87536        0.5113994        18.61204        0.6015242        151.2236
4.656                  0.5505944        151.5436         0.498426         18.0655         0.506835         17.6721        0.6056154         149.923
4.6574                 0.5557705        150.3512          0.49441        17.25537        0.5022105        16.73934        0.6093873        148.6259
4.6588                 0.5607078        149.1573        0.4904655        16.44306        0.4975302        15.81415        0.6128374        147.3334
4.6602                 0.5654025        147.9625        0.4865803        15.62691        0.4927991        14.89692        0.6159645        146.0469
4.6616                 0.5698514        146.7678        0.4827409        14.80547        0.4880221        13.98803        0.6187695        144.7677
4.663                  0.5740518         145.574        0.4789324        13.97758        0.4832046        13.08784        0.6212546        143.4968
4.6644                  0.578002        144.3819        0.4751392        13.14238        0.4783522        12.19668        0.6234237        142.2357
4.6658                 0.5817004        143.1922        0.4713458        12.29933        0.4734706        11.31485        0.6252819        140.9854
4.6672                 0.5851464        142.0056        0.4675366        11.44818        0.4685658        10.44262        0.6268359         139.747
4.6686                 0.5883398        140.8229        0.4636968        10.58903         0.463644        9.580217        0.6280944        138.5217
4.67                   0.5912814        139.6447        0.4598127        9.722251        0.4587112        8.727804         0.629067        137.3104
4.6714                 0.5939722        138.4719        0.4558718         8.84851        0.4537738          7.8855        0.6297647        136.1141
4.6728                 0.5964141         137.305        0.4518636        7.968722         0.448838        7.053361        0.6301998        134.9336
4.6742                 0.5986096        136.1446        0.4477792        7.084034        0.4439096        6.231378        0.6303858        133.7698
4.6756                  0.600562        134.9915         0.443612        6.195783        0.4389949        5.419467        0.6303371        132.6233
4.677                  0.6022751        133.8464        0.4393575        5.305456        0.4340995        4.617474        0.6300691        131.4947
4.6784                 0.6037536        132.7097        0.4350136        4.414653        0.4292288        3.825167        0.6295982        130.3846
4.6798                 0.6050032        131.5821        0.4305805        3.525045         0.424388        3.042236         0.628941        129.2932
4.6812                 0.6060301        130.4642        0.4260603        2.638327        0.4195817        2.268288        0.6281151         128.221
4.6826                 0.6068412        129.3566        0.4214577        1.756177        0.4148142        1.502856        0.6271381        127.1679
4.684                  0.6074445        128.2597        0.4167789       0.8802106        0.4100893       0.7453932        0.6260279         126.134
4.6854                 0.6078485         127.174        0.4120321      0.01194341          0.40541    -0.004719302        0.6248024        125.1193
4.6868                 0.6080627        126.0999        0.4072268      -0.8472512        0.4007789      -0.7481686         0.623479        124.1233
4.6882                 0.6080966        125.0377        0.4023736       -1.696177        0.3961979       -1.485706        0.6220751        123.1456
4.6896                 0.6079612        123.9877        0.3974841       -2.533846        0.3916681       -2.218137        0.6206075        122.1859
4.691                  0.6076672        122.9502        0.3925704       -3.359506        0.3871902       -2.946311        0.6190921        121.2433
4.6924                 0.6072261        121.9251        0.3876447       -4.172662        0.3827638       -3.671116        0.6175442        120.3171
4.6938                 0.6066493        120.9126        0.3827189       -4.973088         0.378388       -4.393465        0.6159773        119.4063
4.6952                 0.6059487        119.9124        0.3778045       -5.760838        0.3740613       -5.114283        0.6144044        118.5098
4.6966                 0.6051359        118.9246        0.3729123       -6.536237        0.3697812       -5.834494        0.6128371        117.6265
4.698                  0.6042222        117.9486        0.3680516       -7.299878         0.365545        -6.55501        0.6112849        116.7551
4.6994                 0.6032185        116.9842        0.3632307       -8.052596        0.3613489       -7.276716        0.6097562        115.8943
4.7008                 0.6021354        116.0308        0.3584562       -8.795473        0.3571889       -8.000439        0.6082577        115.0426
4.7022                 0.6009826        115.0878        0.3537327        -9.52969        0.3530603       -8.727035        0.6067943        114.1985
4.7036                 0.5997689        114.1546        0.3490633       -10.25672        0.3489581       -9.457175        0.6053689        113.3607
4.705                   0.598502        113.2303        0.3444493       -10.97794        0.3448768       -10.19151        0.6039828        112.5275
4.7064                 0.5971886        112.3141        0.3398897       -11.69494        0.3408108       -10.93058        0.6026357        111.6975
4.7078                  0.595834         111.405        0.3353823       -12.40917        0.3367541        -11.6749        0.6013252        110.8693
4.7092                 0.5944423        110.5022        0.3309231       -13.12212        0.3327008       -12.42482        0.6000476        110.0413
4.7106                 0.5930161        109.6047        0.3265066       -13.83511        0.3286446       -13.18053        0.5987973        109.2122
4.712                  0.5915566        108.7116        0.3221261       -14.54927        0.3245797       -13.94216        0.5975677        108.3807
4.7134                 0.5900639        107.8218        0.3177744       -15.26553        0.3205003       -14.70971        0.5963504        107.5458
4.7148                 0.5885363        106.9345        0.3134433       -15.98461        0.3164006       -15.48301        0.5951361        106.7062
4.7162                 0.5869715        106.0488        0.3091246        -16.7069        0.3122754       -16.26178        0.5939144        105.8611
4.7176                 0.5853655        105.1639          0.30481       -17.43253        0.3081198       -17.04559        0.5926741        105.0096
4.719                  0.5837136        104.2793        0.3004916        -18.1613        0.3039293       -17.83389        0.5914034        104.1511
4.7204                 0.5820106        103.3942        0.2961622       -18.89272           0.2997       -18.62598          0.59009         103.285
4.7218                 0.5802502        102.5082        0.2918155       -19.62597        0.2954286       -19.42101        0.5887211        102.4109
4.7232                 0.5784261         101.621        0.2874462       -20.35996        0.2911124       -20.21801        0.5872844        101.5287
4.7246                 0.5765318        100.7324        0.2830506       -21.09335        0.2867494       -21.01589        0.5857671        100.6383
4.726                  0.5745609        99.84225        0.2786264       -21.82455        0.2823384       -21.81341        0.5841571        99.73959
4.7274                 0.5725071        98.95058        0.2741727       -22.55181         0.277879       -22.60924        0.5824425        98.83294
4.7288                 0.5703647        98.05759        0.2696904       -23.27322        0.2733714       -23.40191        0.5806122        97.91865
4.7302                  0.568129        97.16357        0.2651821       -23.98678        0.2688169       -24.18985        0.5786558        96.99722
4.7316                 0.5657959        96.26886        0.2606518       -24.69048        0.2642175        -24.9714        0.5765642        96.06919
4.733                  0.5633624        95.37394        0.2561052       -25.38232         0.259576       -25.74481        0.5743287         95.1353
4.7344                 0.5608267        94.47931        0.2515491        -26.0604         0.254896       -26.50825        0.5719423        94.19642
4.7358                 0.5581881        93.58561        0.2469915       -26.72296         0.250182       -27.25985        0.5693992        93.25336
4.7372                 0.5554476        92.69338        0.2424414       -27.36847        0.2454392       -27.99766        0.5666948        92.30716
4.7386                 0.5526071        91.80326        0.2379083       -27.99566        0.2406735       -28.71972        0.5638261        91.35883
4.74                   0.5496701        90.91585        0.2334021        -28.6036        0.2358918       -29.42407        0.5607914        90.40956
4.7414                  0.546641        90.03167        0.2289326       -29.19176        0.2311012       -30.10873        0.5575908        89.46043
4.7428                 0.5435258        89.15127        0.2245095       -29.75998        0.2263096       -30.77179        0.5542258        88.51266
4.7442                 0.5403309        88.27501        0.2201417       -30.30859        0.2215255       -31.41137        0.5506993        87.56741
4.7456                 0.5370641        87.40316        0.2158372       -30.83836        0.2167576       -32.02572        0.5470158        86.62591
4.747                  0.5337334        86.53594        0.2116028       -31.35055         0.212015       -32.61319        0.5431814        85.68926
4.7484                 0.5303473        85.67335        0.2074438       -31.84683        0.2073072       -33.17228        0.5392035        84.75869
4.7498                 0.5269145        84.81521        0.2033639       -32.32928        0.2026434       -33.70172        0.5350907        83.83523
4.7512                 0.5234436         83.9613        0.1993648       -32.80034         0.198033       -34.20046        0.5308531        82.91992
4.7526                 0.5199426        83.11115        0.1954464       -33.26271        0.1934853       -34.66773        0.5265016        82.01372
4.754                  0.5164189        82.26414        0.1916066       -33.71929        0.1890091       -35.10307        0.5220486        81.11746
4.7554                 0.5128794        81.41948        0.1878413       -34.17306        0.1846129       -35.50639        0.5175067        80.23183
4.7568                 0.5093294        80.57626        0.1841448       -34.62697        0.1803045       -35.87799        0.5128898        79.35744
4.7582                 0.5057732        79.73342        0.1805096       -35.08384         0.176091        -36.2186        0.5082117        78.49472
4.7596                 0.5022133        78.88977        0.1769269       -35.54622        0.1719785       -36.52938        0.5034872        77.64398
4.761                  0.4986512        78.04412        0.1733867       -36.01632        0.1679721       -36.81198        0.4987305        76.80522
4.7624                 0.4950863        77.19509        0.1698785       -36.49588        0.1640757       -37.06854        0.4939563         75.9784
4.7638                 0.4915163        76.34139        0.1663911       -36.98609        0.1602919       -37.30162        0.4891787        75.16316
4.7652                 0.4879375        75.48172        0.1629134       -37.48752        0.1566219       -37.51431        0.4844113        74.35901
4.7666                 0.4843445        74.61473        0.1594347       -38.00009        0.1530654       -37.71005        0.4796669        73.56516
4.768                  0.4807306        73.73926        0.1559447       -38.52299        0.1496206       -37.89268        0.4749575        72.78061
4.7694                 0.4770875        72.85408        0.1524344       -39.05472         0.146284       -38.06639        0.4702938        72.00418
4.7708                 0.4734061         71.9583        0.1488958         -39.593        0.1430506       -38.23554        0.4656852        71.23443
4.7722                 0.4696765        71.05101        0.1453229       -40.13486         0.139914       -38.40468        0.4611393        70.46974
4.7736                 0.4658882        70.13151        0.1417109       -40.67665        0.1368663       -38.57843        0.4566624         69.7082
4.775                  0.4620304        69.19929        0.1380573       -41.21407        0.1338981       -38.76133        0.4522585        68.94786
4.7764                 0.4580923        68.25408        0.1343613       -41.74221         0.130999       -38.95781          0.44793         68.1865
4.7778                 0.4540637        67.29567        0.1306243       -42.25562        0.1281575       -39.17201         0.443677        67.42184
4.7792                 0.4499345        66.32421        0.1268498       -42.74839        0.1253612       -39.40779        0.4394974        66.65138
4.7806                  0.445696        65.33985        0.1230429       -43.21427        0.1225969       -39.66852        0.4353872        65.87264
4.782                  0.4413404        64.34301        0.1192107       -43.64669        0.1198513       -39.95708        0.4313401        65.08304
4.7834                 0.4368611        63.33427        0.1153621       -44.03892        0.1171105        -40.2758        0.4273478        64.28001
4.7848                 0.4322533        62.31424         0.111507       -44.38423        0.1143607        -40.6263        0.4233998          63.461
4.7862                 0.4275134        61.28371        0.1076567       -44.67591        0.1115883       -41.00957        0.4194839        62.62348
4.7876                 0.4226398        60.24346         0.103823        -44.9076          0.10878        -41.4258        0.4155861        61.76503
4.789                  0.4176327        59.19434        0.1000183        -45.0733         0.105923       -41.87441        0.4116907        60.88333
4.7904                 0.4124935        58.13715       0.09625477        -45.1676        0.1030052       -42.35397        0.4077808        59.97618
4.7918                 0.4072258        57.07266       0.09254427       -45.18586        0.1000155       -42.86215        0.4038381        59.04156
4.7932                 0.4018343         56.0015       0.08889759       -45.12433       0.09694365       -43.39565        0.3998435        58.07762
4.7946                  0.396325        54.92418       0.08532416       -44.98029       0.09378046       -43.95008        0.3957769        57.08268
4.796                  0.3907051        53.84103       0.08183158       -44.75208       0.09051809       -44.51983         0.391618        56.05529
4.7974                 0.3849826         52.7521        0.0784252       -44.43912       0.08714995       -45.09793        0.3873461        54.99416
4.7988                 0.3791658        51.65724       0.07510777       -44.04174       0.08367082       -45.67573        0.3829403        53.89827
4.8002                 0.3732633        50.55594       0.07187925       -43.56091       0.08007706       -46.24258        0.3783801        52.76672
4.8016                 0.3672834        49.44736       0.06873668       -42.99782       0.07636659       -46.78532        0.3736454        51.59892
4.803                  0.3612338         48.3303       0.06567419       -42.35323       0.07253909       -47.28757        0.3687164        50.39438
4.8044                 0.3551215        47.20316       0.06268326       -41.62663       0.06859609       -47.72873        0.3635746        49.15284
4.8058                 0.3489518        46.06394        0.0597531       -40.81514       0.06454134       -48.08261        0.3582019        47.87425
4.8072                 0.3427286        44.91024        0.0568712       -39.91218       0.06038099        -48.3152        0.3525819        46.55864
4.8086                 0.3364539        43.73927       0.05402424       -38.90581        0.0561242       -48.38177        0.3466989        45.20627
4.81                   0.3301275        42.54779       0.05119902       -37.77668       0.05178395       -48.22201         0.340539        43.81752
4.8114                 0.3237468        41.33226       0.04838377        -36.4955       0.04737828       -47.75302        0.3340898        42.39287
4.8128                 0.3173069        40.08873       0.04556972       -35.01987        0.0429325       -46.85792        0.3273401        40.93296
4.8142                 0.3108001        38.81298       0.04275299       -33.29007       0.03848273       -45.36815        0.3202809         39.4385
4.8156                 0.3042166        37.50047       0.03993712        -31.2239       0.03408226        -43.0354        0.3129044        37.91032
4.817                  0.2975438        36.14643       0.03713642       -28.71013       0.02981271       -39.48953        0.3052051         36.3493
4.8184                 0.2907673        34.74584       0.03438044       -25.60137       0.02580368        -34.1861         0.297179        34.75641
4.8198                 0.2838709        33.29353       0.03172017       -21.70886       0.02226469       -26.38717        0.2888237        33.13272
4.8212                 0.2768363         31.7841       0.02923604       -16.80612       0.01952228       -15.35051        0.2801391        31.47928
4.8226                 0.2696445        30.21197       0.02704663       -10.65775       0.01800817        -1.07771        0.2711267        29.79727
4.824                  0.2622758        28.57136        0.0253137       -3.100057       0.01808428        14.63407        0.2617898        28.08786
4.8254                 0.2547103        26.85618        0.0242327        5.809057       0.01976524        28.82356        0.2521333        26.35229
4.8268                 0.2469282        25.06003       0.02399563        15.62861       0.02271431        39.71753         0.242164        24.59186
4.8282                 0.2389108          23.176       0.02472934        25.54166        0.0265157        47.33058        0.2318905         22.8079
4.8296                 0.2306411        21.19651        0.0264475        34.65026       0.03085012        52.40777        0.2213227        21.00177
4.831                  0.2221036        19.11311       0.02905763         42.3442       0.03550957        55.68489        0.2104724        19.17494
4.8324                  0.213286        16.91604       0.03241173        48.42652       0.04036251        57.70364        0.1993526        17.32892
4.8338                  0.204179        14.59386       0.03635607        52.99482       0.04532326        58.83208        0.1879778        15.46533
4.8352                 0.1947773        12.13281       0.04075655        56.27245       0.05033298        59.31695        0.1763638        13.58591
4.8366                 0.1850803        9.515902       0.04550424         58.4998       0.05534876        59.32568        0.1645276        11.69259
4.838                  0.1750927        6.721832       0.05051201        59.88822       0.06033756        58.97422        0.1524876        9.787572
4.8394                  0.164826        3.723265       0.05570917        60.60883        0.0652726        58.34474        0.1402627        7.873416
4.8408                 0.1542994       0.4845223        0.0610367        60.79567       0.07013135        57.49691        0.1278732        5.953278
4.8422                  0.143542        -3.04183       0.06644378        60.55249       0.07489421        56.47497          0.11534        4.031215
4.8436                 0.1325952        -6.91996       0.07188536        59.95968       0.07954382         55.3124        0.1026847         2.11277
4.845                  0.1215175       -11.23819        0.0773205        59.08002       0.08406453        54.03508       0.08992964       0.2060496
4.8464                  0.110391        -16.1201       0.08271143        57.96305       0.08844205        52.66334       0.07709767       -1.676119
4.8478                0.09933237       -21.74089       0.08802285        56.64831       0.09266339        51.21341       0.06421205       -3.511433
4.8492                0.08851123       -28.35049       0.09322158         55.1678       0.09671654        49.69849       0.05129664       -5.256203
4.8506                0.07818007       -36.30136       0.09827636        53.54774        0.1005906        48.12942       0.03837603       -6.809494
4.852                 0.06872057       -46.06441        0.1031577         51.8099        0.1042755        46.51526       0.02547726       -7.869036
4.8534                0.06070236       -58.17311         0.107838         49.9726        0.1077622        44.86368       0.01264134        -6.91463
4.8548                0.05491089       -72.95499        0.1122915        48.05143        0.1110426        43.18125      0.001337638        85.16291
4.8562                0.05221697       -89.95582        0.1164942        46.05986        0.1141092        41.47366       0.01302349        157.1636
4.8576                0.05317852       -107.5574        0.1204241        44.00965        0.1169556         39.7459       0.02560333        157.9429
4.859                  0.0576545       -123.7534        0.1240614        41.91118        0.1195763         38.0024        0.0380736        156.8303
4.8604                0.06492547       -137.4325        0.1273882        39.77375        0.1219664        36.24715       0.05039612        155.2343
4.8618                0.07414674       -148.5715        0.1303889         37.6058        0.1241221        34.48375       0.06254617         153.443
4.8632                0.08463295       -157.6437        0.1330502        35.41503        0.1260401        32.71552       0.07450185        151.5539
4.8646                 0.0959022       -165.1711        0.1353609        33.20863        0.1277183        30.94556       0.08624255         149.609
4.866                  0.1076281        -171.572        0.1373124        30.99333         0.129155        29.17675       0.09774863        147.6302
4.8674                 0.1195864       -177.1496        0.1388982        28.77553        0.1303496        27.41186        0.1090013        145.6295
4.8688                 0.1316173        177.8829        0.1401145        26.56141         0.131302        25.65356        0.1199828        143.6148
4.8702                 0.1436018         173.376        0.1409596        24.35698        0.1320131        23.90444         0.130676        141.5912
4.8716                  0.155448         169.224        0.1414343        22.16818        0.1324842        22.16707         0.141065        139.5622