! TOUCHSTONE file generated by CST MICROWAVE STUDIO
! Date and time: Sat Nov 30 03:29:15 2024
! Project name: test_tuning.cst
! Parameters = {airCoaxOuterDiameter=3; chamferAngle=39; chamferWidth=24; connectorLength=10; drillingHoleDiameter=4.1; feedLength=60; flareDiameter=130; flareLength=70; gratingDistance=0; gratingGap=1.90274; outletLength=30; polarizerLength=134; probe1Diameter=1.3; probe1Distance=14; probe1Length=12; probe2Diameter=1.3; probe2Distance=0; probe2Length=12; probeLength=12; smaInnerDiameter=1.3; smaOuterDiameter=4.1; transitionCoefficient=1.33; waveguideFeedLength=30; waveguideSide=50; waveguideThickness=3; wireCount=25; wireDiameter=1.17699}
! Header version: 2024
! Port assignment regex: !\s*Touchstone port\s*([0-9]+)\s*=\s*(CST MWS port|CST DES external port|CST DES block port)\s*(.+)\s* \(\"(.*)\"\)(\s*mode\s*([0-9]+))?.*
! Touchstone port assignment:
! Touchstone port 1 = CST MWS port 1 ("Input1")
! Touchstone port 2 = CST MWS port 2 ("Input2")
# GHz S MA R 50
4.6                     0.256361       -161.1301        0.6088423        65.11459        0.6131996        65.38591        0.2322491       -165.0512
4.6014                 0.2636749       -161.7699        0.6103774        64.18923        0.6151628        64.40346        0.2395084       -165.7853
4.6028                 0.2711786       -162.4249         0.611832        63.25069        0.6169579        63.40215        0.2468029       -166.5373
4.6042                 0.2788706       -163.0987        0.6131947        62.29877        0.6185635        62.38304        0.2541233        -167.306
4.6056                 0.2867469       -163.7942        0.6144532        61.33336        0.6199596        61.34741        0.2614604       -168.0897
4.607                  0.2948013       -164.5141         0.615595        60.35449        0.6211286        60.29675        0.2688061       -168.8868
4.6084                 0.3030249       -165.2605        0.6166072         59.3623        0.6220548         59.2327         0.276153       -169.6955
4.6098                 0.3114068        -166.035        0.6174769        58.35703        0.6227253        58.15701         0.283495        -170.514
4.6112                 0.3199342        -166.839        0.6181912        57.33906        0.6231299        57.07155        0.2908276       -171.3406
4.6126                 0.3285923       -167.6731        0.6187376        56.30889        0.6232611        55.97824        0.2981476       -172.1735
4.614                  0.3373651        -168.538        0.6191038        55.26711        0.6231144        54.87902        0.3054534       -173.0113
4.6154                 0.3462347       -169.4336        0.6192783        54.21446        0.6226881        53.77587        0.3127452       -173.8525
4.6168                 0.3551825       -170.3596        0.6192502        53.15174        0.6219834        52.67068        0.3200249        -174.696
4.6182                 0.3641889       -171.3154        0.6190095         52.0799        0.6210038        51.56535        0.3272957       -175.5409
4.6196                 0.3732337       -172.3003        0.6185475        50.99996        0.6197559        50.46166        0.3345623       -176.3866
4.621                  0.3822963       -173.3132        0.6178561        49.91302        0.6182481        49.36129        0.3418307       -177.2326
4.6224                 0.3913556       -174.3527        0.6169292        48.82026        0.6164909        48.26581        0.3491076        -178.079
4.6238                 0.4003909       -175.4176        0.6157614        47.72298        0.6144968        47.17665        0.3564003        -178.926
4.6252                 0.4093815       -176.5062        0.6143492        46.62247        0.6122794        46.09506        0.3637167       -179.7741
4.6266                 0.4183072       -177.6169        0.6126905        45.52013        0.6098538        45.02217        0.3710643        179.3758
4.628                  0.4271482        -178.748        0.6107849        44.41738        0.6072355         43.9589        0.3784501        178.5226
4.6294                 0.4358854       -179.8977        0.6086334        43.31565        0.6044407        42.90604        0.3858804        177.6651
4.6308                 0.4445007        178.9358        0.6062392        42.21642        0.6014858        41.86416        0.3933602        176.8018
4.6322                 0.4529769        177.7543        0.6036064        41.12118        0.5983871        40.83368         0.400893         175.931
4.6336                 0.4612979        176.5597        0.6007413        40.03143        0.5951603        39.81486          0.40848        175.0511
4.635                  0.4694488        175.3537        0.5976519        38.94861        0.5918204         38.8078        0.4161207        174.1604
4.6364                 0.4774158        174.1382        0.5943473        37.87417        0.5883819        37.81247        0.4238122        173.2571
4.6378                 0.4851866        172.9148        0.5908387        36.80951        0.5848578        36.82871        0.4315486        172.3395
4.6392                 0.4927503        171.6852        0.5871381        35.75596        0.5812604        35.85624        0.4393218        171.4063
4.6406                 0.5000973        170.4512        0.5832594        34.71482        0.5776004        34.89471        0.4471211         170.456
4.642                  0.5072195        169.2142        0.5792172        33.68728        0.5738873         33.9437         0.454933        169.4875
4.6434                 0.5141101        167.9758        0.5750276        32.67442        0.5701294        33.00274        0.4627419        168.4998
4.6448                  0.520764        166.7374        0.5707073        31.67723        0.5663335        32.07134        0.4705297        167.4924
4.6462                 0.5271773        165.5002        0.5662739        30.69658        0.5625056        31.14899        0.4782767        166.4648
4.6476                 0.5333476        164.2656        0.5617454        29.73318        0.5586501        30.23519        0.4859613        165.4169
4.649                  0.5392737        163.0347        0.5571404        28.78759         0.554771        29.32947        0.4935608        164.3489
4.6504                 0.5449559        161.8087        0.5524773        27.86022         0.550871        28.43142        0.5010515        163.2613
4.6518                 0.5503952        160.5883         0.547775        26.95129        0.5469527        27.54063        0.5084093        162.1547
4.6532                 0.5555943        159.3746        0.5430514        26.06085        0.5430176        26.65678          0.51561        161.0303
4.6546                 0.5605566        158.1683        0.5383245        25.18873        0.5390674        25.77958        0.5226297        159.8891
4.656                  0.5652864          156.97        0.5336112        24.33459        0.5351035         24.9088        0.5294454        158.7328
4.6574                 0.5697889        155.7804        0.5289278        23.49789        0.5311272        24.04427        0.5360351        157.5628
4.6588                 0.5740699        154.5998        0.5242893        22.67786          0.52714        23.18586        0.5423782        156.3809
4.6602                  0.578136        153.4288        0.5197093        21.87359        0.5231435        22.33345        0.5484563        155.1892
4.6616                 0.5819937        152.2674        0.5152001        21.08394        0.5191398        21.48697         0.554253        153.9896
4.663                  0.5856503         151.116        0.5107721        20.30763        0.5151308        20.64634         0.559754        152.7842
4.6644                 0.5891131        149.9746        0.5064341        19.54321        0.5111194        19.81147        0.5649482        151.5751
4.6658                 0.5923898        148.8433        0.5021928        18.78909        0.5071081        18.98226        0.5698268        150.3645
4.6672                 0.5954871        147.7219        0.4980534        18.04357        0.5031001        18.15856         0.574384        149.1546
4.6686                 0.5984126        146.6102        0.4940182        17.30488        0.4990984         17.3402        0.5786172        147.9473
4.67                   0.6011731        145.5082        0.4900883        16.57118        0.4951063        16.52691        0.5825265        146.7449
4.6714                  0.603775        144.4154        0.4862623         15.8406        0.4911267        15.71839         0.586115         145.549
4.6728                 0.6062242        143.3316        0.4825369        15.11127        0.4871628        14.91425        0.5893887        144.3617
4.6742                 0.6085264        142.2564        0.4789071        14.38136        0.4832168        14.11402        0.5923561        143.1844
4.6756                 0.6106863        141.1894         0.475366        13.64912        0.4792908        13.31718        0.5950279        142.0188
4.677                  0.6127081        140.1302        0.4719051        12.91287        0.4753862        12.52313        0.5974178         140.866
4.6784                 0.6145955        139.0783        0.4685145        12.17108        0.4715037        11.73121        0.5995402        139.7272
4.6798                 0.6163511        138.0332        0.4651831        11.42235        0.4676429        10.94072        0.6014121        138.6033
4.6812                 0.6179772        136.9945        0.4618985        10.66547         0.463803        10.15094        0.6030509        137.4948
4.6826                  0.619475        135.9619         0.458648        9.899395        0.4599817         9.36114        0.6044752        136.4023
4.684                  0.6208454        134.9348        0.4554179        9.123304        0.4561762        8.570603        0.6057036        135.3258
4.6854                 0.6220884        133.9129        0.4521946        8.336587        0.4523826        7.778654        0.6067551        134.2654
4.6868                 0.6232037        132.8959        0.4489641        7.538856        0.4485962        6.984675        0.6076478        133.2208
4.6882                 0.6241903        131.8835        0.4457126        6.729949        0.4448116        6.188138        0.6083992        132.1915
4.6896                 0.6250468        130.8754         0.442427         5.90993        0.4410226         5.38862        0.6090256        131.1769
4.691                  0.6257716        129.8714        0.4390945        5.079083        0.4372229        4.585828        0.6095418        130.1761
4.6924                 0.6263627        128.8714        0.4357031         4.23791        0.4334056        3.779609        0.6099606        129.1881
4.6938                 0.6268178        127.8754        0.4322421        3.387117        0.4295639        2.969974        0.6102931         128.212
4.6952                 0.6271353        126.8832        0.4287017        2.527607        0.4256911          2.1571        0.6105481        127.2464
4.6966                 0.6273127        125.8951        0.4250733        1.660462        0.4217811        1.341337        0.6107323        126.2903
4.698                  0.6273482         124.911          0.42135       0.7869322        0.4178279       0.5232073        0.6108501        125.3424
4.6994                 0.6272403        123.9311        0.4175261     -0.09158357        0.4138268      -0.2965947        0.6109038        124.4016
4.7008                 0.6269875        122.9557        0.4135979      -0.9735523        0.4097738       -1.117218        0.6108934        123.4667
4.7022                 0.6265891        121.9851        0.4095628       -1.857328        0.4056659       -1.937665        0.6108174        122.5367
4.7036                 0.6260447        121.0196        0.4054204       -2.741168        0.4015018       -2.756815        0.6106724        121.6107
4.705                  0.6253549        120.0595        0.4011715        -3.62327        0.3972814       -3.573464        0.6104536         120.688
4.7064                 0.6245203        119.1053        0.3968188       -4.501705        0.3930057       -4.386247        0.6101555        119.7679
4.7078                 0.6235428        118.1573        0.3923666       -5.374668        0.3886778       -5.193887        0.6097715          118.85
4.7092                 0.6224249        117.2161        0.3878208       -6.240203        0.3843018       -5.995027        0.6092949         117.934
4.7106                 0.6211696         116.282        0.3831888        -7.09638        0.3798833       -6.788315        0.6087189        117.0197
4.712                  0.6197811        115.3555        0.3784793       -7.941385        0.3754293       -7.572503         0.608037        116.1073
4.7134                 0.6182644        114.4371        0.3737022        -8.77342         0.370948        -8.34643        0.6072435         115.197
4.7148                 0.6166248        113.5272         0.368869       -9.590783        0.3664485       -9.109071        0.6063335         114.289
4.7162                 0.6148689        112.6262        0.3639918        -10.3919        0.3619406       -9.859585        0.6053034        113.3839
4.7176                 0.6130037        111.7345        0.3590837       -11.17533        0.3574349       -10.59733        0.6041508        112.4822
4.719                   0.611037        110.8524        0.3541584       -11.93983        0.3529419        -11.3219        0.6028751        111.5845
4.7204                 0.6089769          109.98        0.3492301       -12.68435        0.3484723       -12.03316         0.601477        110.6916
4.7218                 0.6068323        109.1177        0.3443135       -13.40806        0.3440364       -12.73124        0.5999592         109.804
4.7232                 0.6046123        108.2655        0.3394229       -14.11041        0.3396441       -13.41656        0.5983258        108.9224
4.7246                 0.6023264        107.4235         0.334573       -14.79113         0.335304       -14.08983        0.5965825        108.0475
4.726                   0.599984        106.5915        0.3297775       -15.45024        0.3310239       -14.75204        0.5947364        107.1797
4.7274                 0.5975948        105.7695        0.3250498        -16.0881        0.3268101       -15.40443        0.5927958        106.3196
4.7288                 0.5951681        104.9572        0.3204026       -16.70539        0.3226672       -16.04848        0.5907699        105.4673
4.7302                 0.5927132        104.1542         0.315847       -17.30313        0.3185982       -16.68583        0.5886688        104.6232
4.7316                 0.5902387        103.3602        0.3113933        -17.8827        0.3146044       -17.31831        0.5865028        103.7872
4.733                   0.587753        102.5744          0.30705       -18.44577        0.3106849       -17.94779        0.5842822        102.9591
4.7344                 0.5852635        101.7964         0.302824       -18.99435        0.3068373       -18.57621        0.5820175        102.1387
4.7358                  0.582777        101.0252        0.2987204       -19.53074        0.3030574       -19.20544         0.579718        101.3255
4.7372                 0.5802995        100.2602        0.2947425       -20.05745        0.2993392       -19.83729        0.5773926        100.5189
4.7386                 0.5778354         99.5003        0.2908916       -20.57725        0.2956757       -20.47338        0.5750487        99.71798
4.74                   0.5753887        98.74473        0.2871668       -21.09303        0.2920584       -21.11512        0.5726928        98.92198
4.7414                 0.5729618        97.99231        0.2835652       -21.60779        0.2884782       -21.76369        0.5703294        98.12987
4.7428                 0.5705561        97.24212        0.2800823       -22.12456        0.2849254       -22.41991        0.5679612        97.34051
4.7442                 0.5681716        96.49298        0.2767114       -22.64637        0.2813901       -23.08432        0.5655895         96.5529
4.7456                  0.565807        95.74387        0.2734442       -23.17613        0.2778626       -23.75705        0.5632134        95.76583
4.747                  0.5634598        94.99365        0.2702708       -23.71666        0.2743335        -24.4379        0.5608304        94.97823
4.7484                 0.5611264        94.24134        0.2671801       -24.27051        0.2707943       -25.12629        0.5584362        94.18906
4.7498                  0.558802         93.4859        0.2641597       -24.84003        0.2672377       -25.82127        0.5560252        93.39739
4.7512                 0.5564807        92.72634        0.2611966       -25.42724        0.2636576        -26.5216          0.55359        92.60231
4.7526                 0.5541555        91.96185        0.2582768       -26.03382        0.2600494       -27.22572        0.5511229         91.8032
4.754                  0.5518188         91.1916        0.2553863       -26.66111        0.2564102       -27.93183        0.5486146        90.99945
4.7554                 0.5494621         90.4149         0.252511       -27.31004        0.2527389       -28.63792         0.546056        90.19074
4.7568                 0.5470763        89.63114        0.2496369       -27.98115        0.2490363       -29.34187        0.5434375         89.3769
4.7582                  0.544652        88.83984        0.2467505       -28.67458        0.2453049       -30.04147        0.5407499        88.55782
4.7596                 0.5421794         88.0407        0.2438388       -29.39005        0.2415493       -30.73451        0.5379843        87.73376
4.761                  0.5396487        87.23345          0.24089       -30.12689        0.2377754       -31.41886        0.5351329        86.90504
4.7624                   0.53705        86.41797        0.2378932       -30.88406        0.2339908       -32.09256         0.532189        86.07216
4.7638                 0.5343739        85.59429        0.2348387       -31.66016        0.2302043       -32.75387        0.5291467        85.23569
4.7652                  0.531611        84.76259        0.2317185       -32.45342        0.2264257       -33.40135        0.5260025        84.39644
4.7666                 0.5287527        83.92312        0.2285257       -33.26178        0.2226654       -34.03397        0.5227536         83.5552
4.768                  0.5257908        83.07633        0.2252554       -34.08287        0.2189343       -34.65114        0.5193996        82.71284
4.7694                 0.5227184        82.22265        0.2219043       -34.91406        0.2152431       -35.25279        0.5159417         81.8702
4.7708                 0.5195291        81.36277        0.2184707       -35.75251        0.2116023        -35.8394        0.5123826        81.02821
4.7722                 0.5162175         80.4973        0.2149548       -36.59514        0.2080213       -36.41204        0.5087268        80.18764
4.7736                 0.5127796        79.62713        0.2113587       -37.43875        0.2045088       -36.97238        0.5049802        79.34921
4.775                  0.5092124        78.75302         0.207686       -38.27996        0.2010716       -37.52266          0.50115        78.51355
4.7764                 0.5055142        77.87592         0.203942       -39.11534        0.1977151       -38.06568        0.4972444        77.68113
4.7778                 0.5016844        76.99679        0.2001339       -39.94142        0.1944425       -38.60473        0.4932721        76.85223
4.7792                 0.4977239        76.11659        0.1962701       -40.75472        0.1912547       -39.14351        0.4892427        76.02691
4.7806                 0.4936347        75.23631        0.1923608       -41.55181        0.1881508       -39.68602        0.4851652        75.20504
4.782                  0.4894203        74.35693        0.1884171       -42.32941        0.1851272       -40.23648        0.4810489        74.38636
4.7834                  0.485085        73.47943        0.1844515       -43.08441        0.1821783       -40.79913        0.4769021        73.57023
4.7848                 0.4806346        72.60469        0.1804773       -43.81398        0.1792965       -41.37814        0.4727322        72.75592
4.7862                 0.4760755        71.73362        0.1765087       -44.51563        0.1764723       -41.97751        0.4685454        71.94245
4.7876                 0.4714154        70.86694        0.1725602        -45.1873        0.1736947       -42.60087        0.4643464        71.12865
4.789                  0.4666627        70.00539        0.1686468       -45.82749        0.1709519       -43.25144         0.460138        70.31318
4.7904                 0.4618263        69.14952        0.1647833       -46.43533        0.1682308       -43.93188        0.4559212        69.49465
4.7918                 0.4569157        68.29977        0.1609842       -47.01067        0.1655185       -44.64425         0.451695        68.67148
4.7932                 0.4519407        67.45646        0.1572635       -47.55424        0.1628018       -45.38996        0.4474561        67.84215
4.7946                 0.4469113        66.61973        0.1536341       -48.06768        0.1600682       -46.16974        0.4431996        67.00508
4.796                  0.4418373        65.78957        0.1501079       -48.55363        0.1573061       -46.98366        0.4389186        66.15876
4.7974                 0.4367284        64.96575        0.1466949       -49.01585        0.1545052       -47.83113        0.4346042        65.30177
4.7988                 0.4315938        64.14792        0.1434034       -49.45916        0.1516564       -48.71095        0.4302462        64.43283
4.8002                  0.426442        63.33543        0.1402396       -49.88952        0.1487527        -49.6214        0.4258334        63.55083
4.8016                 0.4212808        62.52755         0.137207       -50.31396         0.145789       -50.56028        0.4213535        62.65487
4.803                   0.416117        61.72326        0.1343067        -50.7405        0.1427621       -51.52505        0.4167937        61.74426
4.8044                 0.4109559        60.92143        0.1315371       -51.17807        0.1396713        -52.5129        0.4121409        60.81858
4.8058                  0.405802        60.12065        0.1288937        -51.6363        0.1365177       -53.52091        0.4073826        59.87767
4.8072                 0.4006579         59.3194        0.1263693       -52.12541        0.1333045       -54.54613        0.4025066        58.92163
4.8086                 0.3955248        58.51602        0.1239542       -52.65599        0.1300369       -55.58581        0.3975015        57.95081
4.81                   0.3904021        57.70867        0.1216361       -53.23875        0.1267219       -56.63745        0.3923575        56.96583
4.8114                 0.3852877        56.89542        0.1194005       -53.88445        0.1233677        -57.6991         0.387066        55.96752
4.8128                 0.3801775        56.07424        0.1172312       -54.60358        0.1199838       -58.76942        0.3816203        54.95693
4.8142                 0.3750659        55.24306        0.1151104       -55.40633        0.1165807       -59.84798        0.3760155        53.93525
4.8156                 0.3699453        54.39978        0.1130195       -56.30247        0.1131689        -60.9354        0.3702487        52.90383
4.817                  0.3648066        53.54228         0.110939       -57.30131        0.1097594       -62.03354         0.364319        51.86411
4.8184                 0.3596392        52.66852        0.1088496       -58.41166        0.1063623       -63.14583         0.358228        50.81757
4.8198                 0.3544309        51.77648         0.106732         -59.642        0.1029874       -64.27729        0.3519784        49.76569
4.8212                 0.3491686        50.86425        0.1045676        -61.0005       0.09964273       -65.43491        0.3455754        48.70989
4.8226                 0.3438375        49.93007        0.1023392       -62.49526       0.09633513       -66.62766        0.3390256         47.6515
4.824                  0.3384225        48.97231        0.1000308       -64.13448        0.0930693       -67.86682        0.3323368        46.59168
4.8254                 0.3329074        47.98951       0.09762831       -65.92679       0.08984795       -69.16591        0.3255179        45.53139
4.8268                 0.3272758        46.98042       0.09511982       -67.88157       0.08667146         -70.541        0.3185786         44.4713
4.8282                 0.3215108        45.94399       0.09249588       -70.00932       0.08353803       -72.01073        0.3115287        43.41184
4.8296                 0.3155956        44.87943       0.08974981       -72.32218       0.08044386       -73.59641        0.3043781        42.35301
4.831                  0.3095137        43.78616       0.08687806       -74.83442        0.0773834       -75.32223        0.2971358        41.29448
4.8324                 0.3032488        42.66385       0.08388064       -77.56315       0.07434995       -77.21549        0.2898102        40.23548
4.8338                 0.2967853        41.51247       0.08076144       -80.52909       0.07133631       -79.30709        0.2824082        39.17482
4.8352                 0.2901085        40.33222       0.07752896        -83.7575       0.06833572       -81.63188        0.2749351        38.11087
4.8366                 0.2832047        39.12362       0.07419685       -87.27921       0.06534301       -84.22964         0.267394        37.04153
4.838                  0.2760612        37.88746       0.07078488       -91.13189       0.06235593       -87.14609        0.2597857        35.96434
4.8394                  0.268667        36.62486       0.06732014        -95.3613       0.05937684        -90.4342        0.2521087        34.87638
4.8408                  0.261012        35.33726       0.06383845       -100.0224       0.05641474       -94.15569        0.2443588        33.77439
4.8422                 0.2530882        34.02645       0.06038633       -105.1801        0.0534877       -98.38261        0.2365291        32.65485
4.8436                 0.2448891        32.69464       0.05702313       -110.9081       0.05062579        -103.198          0.22861        31.51393
4.845                  0.2364099        31.34448       0.05382345       -117.2854       0.04787453       -108.6949        0.2205899        30.34768
4.8464                 0.2276478        29.97912       0.05087905       -124.3876       0.04529851       -114.9713        0.2124546        29.15199
4.8478                 0.2186018        28.60234        0.0482992       -132.2702       0.04298462       -122.1177        0.2041883        27.92272
4.8492                 0.2092728        27.21869       0.04620741       -140.9428       0.04104307       -130.1933        0.1957736        26.65575
4.8506                 0.1996641        25.83361       0.04473236        -150.338       0.03960357       -139.1902        0.1871923        25.34701
4.852                  0.1897805        24.45375       0.04399162       -160.2874       0.03880336       -148.9917        0.1784256        23.99252
4.8534                 0.1796294        23.08727       0.04407079       -170.5236       0.03876609       -159.3505        0.1694547        22.58841
4.8548                 0.1692202        21.74441       0.04500533        179.2758       0.03957628       -169.9117        0.1602617        21.13088
4.8562                 0.1585645        20.43814       0.04677393        169.4185       0.04126059          179.71        0.1508294        19.61612
4.8576                 0.1476765        19.18532       0.04930674        160.1343       0.04378563        169.8362        0.1411427        18.04019
4.859                  0.1365729        18.00833       0.05250322        151.5488       0.04707221        160.6659        0.1311884        16.39878
4.8604                 0.1252736        16.93768       0.05625123        143.6939       0.05101673        152.2723        0.1209561        14.68681
4.8618                 0.1138023        16.01621       0.06044096         136.537       0.05550955        144.6359        0.1104382        12.89781
4.8632                 0.1021877        15.30626       0.06497266        130.0111       0.06044635        137.6854       0.09963066        11.02273
4.8646                0.09046555         14.9023       0.06975918        124.0368       0.06573298        131.3299       0.08853298        9.047922
4.866                 0.07868363         14.9546       0.07472601        118.5356       0.07128637        125.4777       0.07714864        6.951128
4.8674                0.06691029        15.71667       0.07980961        113.4357       0.07703347        120.0455        0.0654854        4.692908
4.8688                0.05525527        17.64743       0.08495584        108.6752        0.0829096         114.962       0.05355586         2.19614
4.8702                0.04392073        21.64963       0.09011807        104.2017       0.08885692        110.1681       0.04137898      -0.7119427
4.8716                0.03334487        29.65026       0.09525586        99.97151       0.09482301        105.6152       0.02898558       -4.509825