! TOUCHSTONE file generated by CST MICROWAVE STUDIO
! Date and time: Sat Nov 30 03:29:14 2024
! Project name: test_tuning.cst
! Parameters = {airCoaxOuterDiameter=3; chamferAngle=37; chamferWidth=24; connectorLength=10; drillingHoleDiameter=4.1; feedLength=60; flareDiameter=130; flareLength=70; gratingDistance=0; gratingGap=1.90274; outletLength=30; polarizerLength=134; probe1Diameter=1.3; probe1Distance=14; probe1Length=12; probe2Diameter=1.3; probe2Distance=0; probe2Length=12; probeLength=12; smaInnerDiameter=1.3; smaOuterDiameter=4.1; transitionCoefficient=1.33; waveguideFeedLength=30; waveguideSide=50; waveguideThickness=3; wireCount=25; wireDiameter=1.17699}
! Header version: 2024
! Port assignment regex: !\s*Touchstone port\s*([0-9]+)\s*=\s*(CST MWS port|CST DES external port|CST DES block port)\s*(.+)\s* \(\"(.*)\"\)(\s*mode\s*([0-9]+))?.*
! Touchstone port assignment:
! Touchstone port 1 = CST MWS port 1 ("Input1")
! Touchstone port 2 = CST MWS port 2 ("Input2")
# GHz S MA R 50
4.6                    0.3021908       -159.7383        0.6245198        63.59018        0.6171682        63.81738        0.2392069       -169.8319
4.6014                 0.3104831       -160.8748         0.625489        62.47532        0.6186035        62.77431        0.2469191        -170.615
4.6028                 0.3187464       -162.0155        0.6261773        61.35305        0.6198324        61.71647        0.2545569       -171.4135
4.6042                  0.326975       -163.1591        0.6265822        60.22496        0.6208401        60.64509        0.2621127       -172.2221
4.6056                 0.3351637       -164.3047        0.6267031        59.09262        0.6216142        59.56157        0.2695827       -173.0359
4.607                  0.3433081       -165.4513         0.626541        57.95762        0.6221438        58.46738         0.276967       -173.8508
4.6084                 0.3514045       -166.5982        0.6260982        56.82144        0.6224205        57.36402        0.2842692       -174.6628
4.6098                 0.3594501       -167.7448        0.6253792        55.68554        0.6224378        56.25312        0.2914971       -175.4687
4.6112                 0.3674423       -168.8904        0.6243895        54.55136        0.6221914        55.13626        0.2986615       -176.2663
4.6126                 0.3753794       -170.0347        0.6231361        53.42025        0.6216796        54.01504        0.3057764       -177.0536
4.614                    0.38326       -171.1772        0.6216272         52.2935        0.6209022        52.89109        0.3128585       -177.8297
4.6154                 0.3910833       -172.3178        0.6198726        51.17233        0.6198616        51.76593        0.3199263       -178.5941
4.6168                 0.3988486       -173.4563        0.6178828        50.05789        0.6185618        50.64108            0.327       -179.3473
4.6182                 0.4065557       -174.5926        0.6156692        48.95128        0.6170085        49.51798        0.3341004        179.9097
4.6196                 0.4142043       -175.7268        0.6132447        47.85345        0.6152095        48.39798        0.3412481        179.1752
4.621                  0.4217945        -176.859        0.6106223         46.7653        0.6131733        47.28236        0.3484632        178.4471
4.6224                 0.4293259       -177.9894         0.607816        45.68765        0.6109101        46.17228         0.355764        177.7225
4.6238                 0.4367985       -179.1183        0.6048403        44.62116        0.6084309        45.06879        0.3631668        176.9984
4.6252                 0.4442119        179.7541        0.6017097        43.56645        0.6057474        43.97285        0.3706846        176.2714
4.6266                 0.4515653        178.6273        0.5984394        42.52399        0.6028722        42.88532        0.3783273        175.5379
4.628                  0.4588579         177.501        0.5950443        41.49413        0.5998178         41.8069        0.3861007        174.7944
4.6294                 0.4660882        176.3747        0.5915395        40.47712        0.5965974        40.73822        0.3940063        174.0373
4.6308                 0.4732544        175.2481        0.5879396        39.47309        0.5932236        39.67979        0.4020411        173.2634
4.6322                 0.4803541        174.1206         0.584259        38.48205        0.5897095        38.63203        0.4101977        172.4695
4.6336                 0.4873844        172.9919        0.5805118        37.50387        0.5860674        37.59525        0.4184643        171.6529
4.635                   0.494342        171.8614        0.5767111        36.53832        0.5823095        36.56969        0.4268248        170.8114
4.6364                 0.5012227        170.7287        0.5728693        35.58506        0.5784474         35.5555        0.4352592        169.9432
4.6378                 0.5080218        169.5934        0.5689981        34.64364        0.5744923        34.55278        0.4437442        169.0469
4.6392                  0.514734        168.4551         0.565108        33.71347        0.5704547        33.56153        0.4522533        168.1217
4.6406                 0.5213534        167.3136        0.5612086        32.79392        0.5663445        32.58174        0.4607582        167.1675
4.642                  0.5278735        166.1683        0.5573082        31.88423        0.5621713        31.61334        0.4692283        166.1844
4.6434                 0.5342873        165.0193        0.5534137         30.9836        0.5579437        30.65624        0.4776322         165.173
4.6448                 0.5405871        163.8661        0.5495313        30.09114        0.5536702        29.71028        0.4859382        164.1345
4.6462                 0.5467649        162.7087        0.5456652        29.20593        0.5493586        28.77532        0.4941147        163.0704
4.6476                 0.5528123         161.547        0.5418188        28.32701         0.545016        27.85117        0.5021308        161.9824
4.649                  0.5587203        160.3809         0.537994        27.45341        0.5406497         26.9376        0.5099571        160.8726
4.6504                 0.5644798        159.2105        0.5341915        26.58414         0.536266        26.03442         0.517566        159.7434
4.6518                 0.5700816        158.0359        0.5304107        25.71824        0.5318715        25.14134        0.5249321        158.5973
4.6532                 0.5755161        156.8572          0.52665        24.85477         0.527472        24.25811        0.5320329        157.4367
4.6546                 0.5807737        155.6748        0.5229068        23.99284        0.5230732        23.38439        0.5388489        156.2645
4.656                  0.5858449        154.4888        0.5191772         23.1316        0.5186806        22.51984        0.5453636        155.0832
4.6574                 0.5907203        153.2995         0.515457        22.27031        0.5142993        21.66407        0.5515642        153.8956
4.6588                 0.5953909        152.1076         0.511741        21.40826        0.5099341        20.81665        0.5574412        152.7044
4.6602                 0.5998476        150.9134        0.5080232        20.54487        0.5055893        19.97707        0.5629887         151.512
4.6616                  0.604082        149.7174        0.5042977        19.67967         0.501269         19.1448        0.5682043         150.321
4.663                  0.6080861        148.5203        0.5005578        18.81226        0.4969766        18.31923        0.5730892        149.1335
4.6644                 0.6118524        147.3227        0.4967969        17.94237         0.492715        17.49971        0.5776472        147.9517
4.6658                 0.6153742        146.1253        0.4930085        17.06988        0.4884863        16.68553        0.5818854        146.7774
4.6672                 0.6186455        144.9288        0.4891858        16.19474        0.4842922        15.87592        0.5858136        145.6123
4.6686                 0.6216611        143.7339        0.4853227        15.31705        0.4801333        15.07008        0.5894439        144.4578
4.67                   0.6244166        142.5416        0.4814134        14.43702        0.4760094        14.26717          0.59279        143.3151
4.6714                 0.6269089        141.3526        0.4774524        13.55496        0.4719195        13.46636        0.5958673        142.1852
4.6728                 0.6291354        140.1679         0.473435        12.67131        0.4678616        12.66677        0.5986924        141.0686
4.6742                  0.631095        138.9882         0.469357         11.7866        0.4638328        11.86757        0.6012822        139.9659
4.6756                 0.6327875        137.8146        0.4652152        10.90146        0.4598293        11.06793        0.6036539        138.8772
4.677                  0.6342141        136.6478        0.4610071        10.01661        0.4558464        10.26712        0.6058244        137.8024
4.6784                  0.635377        135.4889        0.4567312        9.132817        0.4518788        9.464433          0.60781        136.7412
4.6798                 0.6362796        134.3388        0.4523869         8.25095        0.4479203        8.659282         0.609626        135.6933
4.6812                 0.6369265        133.1982        0.4479746        7.371914        0.4439643        7.851181         0.611286        134.6579
4.6826                 0.6373237        132.0683        0.4434954        6.496657        0.4400038        7.039775        0.6128024        133.6343
4.684                   0.637478        130.9496        0.4389519        5.626151        0.4360315        6.224853        0.6141856        132.6217
4.6854                 0.6373978        129.8433        0.4343471        4.761388        0.4320402        5.406356        0.6154436        131.6192
4.6868                 0.6370924        128.7498        0.4296852        3.903358        0.4280227        4.584391        0.6165831        130.6258
4.6882                  0.636572        127.6701        0.4249712        3.053036        0.4239723        3.759232        0.6176082        129.6405
4.6896                 0.6358482        126.6048        0.4202109        2.211371        0.4198827         2.93132        0.6185214        128.6625
4.691                  0.6349329        125.5544         0.415411        1.379266        0.4157485        2.101264        0.6193232        127.6909
4.6924                 0.6338397        124.5196        0.4105783       0.5575678        0.4115651        1.269828        0.6200126         126.725
4.6938                 0.6325821        123.5007        0.4057209      -0.2529487        0.4073292       0.4379207        0.6205872        125.7641
4.6952                 0.6311744        122.4981        0.4008467       -1.051596        0.4030382      -0.3934185        0.6210437        124.8079
4.6966                 0.6296317        121.5121        0.3959644       -1.837786        0.3986912       -1.223044        0.6213782        123.8558
4.698                  0.6279689        120.5427        0.3910826       -2.611044        0.3942887       -2.049724        0.6215859        122.9078
4.6994                 0.6262018        119.5901        0.3862101       -3.371022        0.3898324       -2.872174        0.6216625        121.9638
4.7008                 0.6243456        118.6541        0.3813558       -4.117505        0.3853256       -3.689075         0.621604        121.0239
4.7022                 0.6224154        117.7344        0.3765283       -4.850425        0.3807727       -4.499122        0.6214068        120.0884
4.7036                 0.6204264        116.8309         0.371736       -5.569881        0.3761797       -5.301044        0.6210683        119.1576
4.705                   0.618393         115.943        0.3669869       -6.276089        0.3715535       -6.093642        0.6205871         118.232
4.7064                 0.6163292        115.0701        0.3622883        -6.96946        0.3669023       -6.875831        0.6199633        117.3121
4.7078                 0.6142482        114.2115         0.357647       -7.650569        0.3622348       -7.646634        0.6191982        116.3985
4.7092                 0.6121619        113.3664        0.3530692        -8.32015        0.3575607       -8.405336         0.618295        115.4919
4.7106                 0.6100817        112.5338          0.34856       -8.979065        0.3528898       -9.151309        0.6172581        114.5928
4.712                  0.6080176        111.7127        0.3441236       -9.628348        0.3482322       -9.884242        0.6160941        113.7019
4.7134                 0.6059781         110.902        0.3397634       -10.26916        0.3435977       -10.60402        0.6148104        112.8196
4.7148                 0.6039703        110.1003        0.3354815       -10.90277        0.3389957       -11.31082        0.6134161        111.9464
4.7162                 0.6020001        109.3066        0.3312791       -11.53055        0.3344352       -12.00504        0.6119212        111.0825
4.7176                 0.6000715        108.5193         0.327156       -12.15397        0.3299239       -12.68738        0.6103367        110.2282
4.719                   0.598187        107.7372        0.3231113       -12.77453        0.3254686       -13.35876        0.6086736        109.3836
4.7204                 0.5963478        106.9588        0.3191426       -13.39378        0.3210747       -14.02034         0.606944        108.5483
4.7218                 0.5945529        106.1827        0.3152467       -14.01327        0.3167461       -14.67348        0.6051589        107.7223
4.7232                 0.5928002        105.4076        0.3114192       -14.63452        0.3124849       -15.31968        0.6033295        106.9048
4.7246                 0.5910858        104.6321        0.3076551       -15.25901        0.3082919       -15.96057        0.6014657        106.0955
4.726                  0.5894047         103.855        0.3039481       -15.88816        0.3041659       -16.59785        0.5995766        105.2934
4.7274                 0.5877501         103.075        0.3002916       -16.52325        0.3001043       -17.23319        0.5976697        104.4976
4.7288                 0.5861144         102.291        0.2966781       -17.16546        0.2961029       -17.86826        0.5957509        103.7071
4.7302                 0.5844886         101.502        0.2930997       -17.81585        0.2921561       -18.50457        0.5938244        102.9209
4.7316                 0.5828629        100.7071        0.2895482       -18.47526        0.2882573        -19.1435         0.591892        102.1377
4.733                  0.5812266        99.90545        0.2860152       -19.14437        0.2843987       -19.78621         0.589954        101.3563
4.7344                 0.5795686        99.09641        0.2824921       -19.82369        0.2805723       -20.43361        0.5880087        100.5757
4.7358                 0.5778772        98.27943        0.2789704       -20.51349        0.2767695        -21.0863        0.5860521        99.79471
4.7372                 0.5761404        97.45418         0.275442       -21.21384        0.2729815       -21.74458        0.5840787        99.01223
4.7386                 0.5743462        96.62033        0.2718989       -21.92458        0.2692002       -22.40841        0.5820816        98.22742
4.74                   0.5724827        95.77788        0.2683337       -22.64534        0.2654178       -23.07742        0.5800523        97.43948
4.7414                 0.5705382        94.92677        0.2647394       -23.37552        0.2616272       -23.75088        0.5779815        96.64786
4.7428                 0.5685014        94.06724        0.2611101        -24.1143        0.2578227       -24.42777        0.5758596        95.85207
4.7442                 0.5663617        93.19953        0.2574403       -24.86065        0.2539997       -25.10677         0.573676         95.0519
4.7456                 0.5641094        92.32412        0.2537255       -25.61335        0.2501551       -25.78629        0.5714208        94.24729
4.747                  0.5617351        91.44158        0.2499623       -26.37094        0.2462874       -26.46456        0.5690844        93.43835
4.7484                 0.5592309        90.55249         0.246148        -27.1318        0.2423966       -27.13962        0.5666578        92.62546
4.7498                 0.5565898        89.65768        0.2422814       -27.89415        0.2384845       -27.80942        0.5641336        91.80911
4.7512                 0.5538061        88.75796         0.238362       -28.65603        0.2345545       -28.47189        0.5615052        90.98991
4.7526                 0.5508754        87.85428        0.2343908       -29.41531        0.2306114       -29.12499        0.5587681        90.16862
4.754                  0.5477944        86.94761        0.2303696       -30.16979        0.2266614       -29.76678        0.5559194        89.34617
4.7554                 0.5445615        86.03904        0.2263016       -30.91714        0.2227121       -30.39552         0.552958        88.52334
4.7568                 0.5411763        85.12962        0.2221909       -31.65491        0.2187718        -31.0097         0.549885        87.70115
4.7582                 0.5376399        84.22048        0.2180429       -32.38066        0.2148494       -31.60817        0.5467034        86.88052
4.7596                 0.5339549        83.31276        0.2138638       -33.09187        0.2109545       -32.19018        0.5434178        86.06232
4.761                  0.5301252        82.40758         0.209661       -33.78605        0.2070964        -32.7554        0.5400348        85.24733
4.7624                 0.5261561        81.50608        0.2054427       -34.46074        0.2032843       -33.30401        0.5365625        84.43626
4.7638                 0.5220543        80.60928        0.2012178       -35.11357        0.1995266       -33.83675        0.5330099        83.62963
4.7652                 0.5178275        79.71825        0.1969961       -35.74228        0.1958307       -34.35485        0.5293872        82.82774
4.7666                 0.5134848        78.83393        0.1927879       -36.34481        0.1922028       -34.86014        0.5257051        82.03082
4.768                  0.5090361        77.95725        0.1886039       -36.91931        0.1886476       -35.35489        0.5219746        81.23873
4.7694                 0.5044925        77.08896         0.184455       -37.46422        0.1851679        -35.8419        0.5182061        80.45117
4.7708                 0.4998655         76.2297        0.1803524       -37.97834        0.1817645       -36.32429          0.51441        79.66764
4.7722                 0.4951675        75.38006         0.176307       -38.46086        0.1784365       -36.80552        0.5105953        78.88741
4.7736                 0.4904109        74.54031        0.1723298       -38.91148        0.1751806        -37.2892        0.5067696        78.10942
4.775                  0.4856089        73.71082        0.1684309       -39.33039        0.1719918       -37.77903        0.5029391        77.33249
4.7764                 0.4807745        72.89155          0.16462       -39.71843        0.1688631       -38.27863        0.4991081        76.55536
4.7778                 0.4759202        72.08232        0.1609059       -40.07703        0.1657861       -38.79141        0.4952787        75.77647
4.7792                 0.4710587        71.28278        0.1572961       -40.40835         0.162751       -39.32047        0.4914506        74.99427
4.7806                 0.4662018        70.49244        0.1537969       -40.71523        0.1597469       -39.86849        0.4876215        74.20718
4.782                  0.4613606        69.71043        0.1504132       -41.00125        0.1567623       -40.43759        0.4837864        73.41354
4.7834                 0.4565453        68.93585         0.147148        -41.2707        0.1537857       -41.02929        0.4799387        72.61178
4.7848                 0.4517646        68.16744        0.1440028       -41.52853        0.1508054       -41.64446        0.4760691        71.80038
4.7862                 0.4470263        67.40381        0.1409767       -41.78031        0.1478104       -42.28323        0.4721673        70.97805
4.7876                 0.4423363        66.64333        0.1380674       -42.03216        0.1447906       -42.94507        0.4682209        70.14358
4.789                  0.4376991         65.8842          0.13527       -42.29062        0.1417371        -43.6287        0.4642169        69.29602
4.7904                 0.4331171        65.12447         0.132578       -42.56258        0.1386423       -44.33221        0.4601413        68.43462
4.7918                 0.4285912        64.36202        0.1299828       -42.85508        0.1355006       -45.05305        0.4559797        67.55895
4.7932                 0.4241201        63.59462        0.1274741       -43.17525         0.132308       -45.78814        0.4517183        66.66877
4.7946                 0.4197004        62.81995        0.1250398       -43.53013        0.1290626       -46.53393        0.4473434        65.76417
4.796                  0.4153269        62.03559        0.1226665       -43.92657        0.1257645       -47.28652        0.4428424        64.84543
4.7974                 0.4109924        61.23912        0.1203396        -44.3711        0.1224157       -48.04176         0.438204        63.91316
4.7988                 0.4066876        60.42813        0.1180436       -44.86983        0.1190203        -48.7954        0.4334186        62.96812
4.8002                 0.4024016        59.60018        0.1157621       -45.42845        0.1155839       -49.54318        0.4284783        62.01134
4.8016                 0.3981218        58.75294        0.1134787       -46.05207        0.1121137        -50.2811        0.4233774        61.04395
4.803                  0.3938337        57.88416        0.1111765       -46.74532         0.108618       -51.00547        0.4181122        60.06722
4.8044                 0.3895219        56.99169        0.1088389       -47.51228        0.1051063       -51.71319        0.4126816        59.08249
4.8058                 0.3851694        56.07353        0.1064498       -48.35659        0.1015883       -52.40192        0.4070866        58.09114
4.8072                 0.3807586        55.12786        0.1039936       -49.28141       0.09807401       -53.07027        0.4013302         57.0945
4.8086                 0.3762707        54.15299        0.1014556       -50.28959       0.09457293       -53.71806        0.3954174        56.09381
4.81                   0.3716866        53.14746       0.09882194       -51.38377        0.0910938       -54.34648        0.3893554         55.0902
4.8114                 0.3669869        52.10999       0.09608006       -52.56644       0.08764406        -54.9583        0.3831522        54.08458
4.8128                  0.362152        51.03954       0.09321863       -53.84017       0.08422941       -55.55808        0.3768174        53.07764
4.8142                 0.3571625        49.93523       0.09022768       -55.20773       0.08085334       -56.15219         0.370361        52.06974
4.8156                 0.3519994        48.79642       0.08709876       -56.67237       0.07751683       -56.74904        0.3637934        51.06091
4.817                  0.3466442        47.62267       0.08382488       -58.23801        0.0742181       -57.35895        0.3571245        50.05083
4.8184                  0.341079        46.41377       0.08040073       -59.90965       0.07095235       -57.99433        0.3503638        49.03869
4.8198                 0.3352872        45.16964        0.0768226       -61.69383       0.06771184       -58.66946        0.3435195        48.02334
4.8212                 0.3292528        43.89045       0.07308852       -63.59909       0.06448592       -59.40054        0.3365979        47.00313
4.8226                 0.3229616        42.57652        0.0691983       -65.63695       0.06126131       -60.20565        0.3296034        45.97597
4.824                  0.3164003        41.22834       0.06515366       -67.82301       0.05802247       -61.10485         0.322538        44.93935
4.8254                 0.3095573        39.84658       0.06095835        -70.1786        0.0547521       -62.12058        0.3154009        43.89038
4.8268                 0.3024226        38.43204       0.05661843       -72.73346       0.05143178       -63.27826        0.3081881        42.82576
4.8282                 0.2949877         36.9857        0.0521427       -75.52974       0.04804268       -64.60765        0.3008928        41.74194
4.8296                  0.287246        35.50866       0.04754338       -78.62851       0.04456641       -66.14518        0.2935048        40.63509
4.831                  0.2791925        34.00219       0.04283742        -82.1207       0.04098592       -67.93779        0.2860111        39.50121
4.8324                 0.2708242        32.46767       0.03804874       -86.14631       0.03728664       -70.05013        0.2783955        38.33617
4.8338                 0.2621397        30.90668       0.03321273        -90.9294       0.03345798       -72.57709        0.2706397        37.13584
4.8352                 0.2531394        29.32095       0.02838512        -96.8451       0.02949554       -75.66811        0.2627229        35.89609
4.8366                 0.2438258        27.71238       0.02366152       -104.5506       0.02540536       -79.57651        0.2546225        34.61292
4.838                  0.2342028        26.08312        0.0192217         -115.23       0.02121277       -84.76926         0.246315        33.28243
4.8394                 0.2242764        24.43555       0.01542898        -130.896       0.01698482       -92.19388        0.2377762        31.90089
4.8408                 0.2140542        22.77239       0.01298657        -153.701       0.01289654        -103.977        0.2289818        30.46478
4.8422                 0.2035454        21.09676       0.01279747         178.617      0.009447957       -124.9699        0.2199082        28.97075
4.8436                  0.192761        19.41229       0.01501159        154.3742      0.007957051       -160.5299         0.210533        27.41557
4.845                  0.1817135        17.72332       0.01883239        137.3409      0.009722071        163.5677        0.2008357        25.79607
4.8464                 0.1704168        16.03511       0.02350178        125.7271       0.01373931        142.0353        0.1907981        24.10899
4.8478                 0.1588865        14.35424       0.02860601        117.3617       0.01875093        129.6748         0.180405        22.35082
4.8492                 0.1471397        12.68915       0.03393812         110.917       0.02424808        121.5632        0.1696444        20.51748
4.8506                 0.1351945        11.05097       0.03938682        105.6557       0.03003457        115.5385        0.1585084        18.60393
4.852                   0.123071        9.454977       0.04488526          101.16       0.03601585        110.6413        0.1469927        16.60345
4.8534                 0.1107901        7.922888       0.05038854        97.18222       0.04213371        106.4032        0.1350977        14.50667
4.8548                0.09837505        6.487054       0.05586344        93.56871       0.04834452        102.5737        0.1228283        12.29976
4.8562                 0.0858508        5.198299       0.06128343        90.22006       0.05461086        99.00909        0.1101944        9.961459
4.8576                0.07324559        4.141878       0.06662614        87.06956       0.06089815        95.62235       0.09721098        7.457447
4.859                 0.06059341          3.4733       0.07187188        84.07119       0.06717314        92.35843       0.08389913        4.729053
4.8604                0.04794033        3.510055       0.07700299        81.19227        0.0734033         89.1815       0.07028717        1.668317
4.8618                 0.0353654        5.014047       0.08200325        78.40918       0.07955659        86.06768       0.05641485       -1.944905
4.8632                0.02306751        10.33961       0.08685774        75.70449        0.0856015        83.00093       0.04234559       -6.632992
4.8646                 0.0119691        30.51779        0.0915526        73.06521       0.09150714        79.97041        0.0282172       -13.97982
4.866                0.009081814        101.7148       0.09607501        70.48148       0.09724346         76.9689       0.01459074       -31.54355
4.8674                0.01859137        137.4754         0.100413        67.94582        0.1027814        73.99168       0.00776818       -110.1358
4.8688                0.03043347        145.8741        0.1045557        65.45246         0.108093        71.03592       0.01874276       -162.0941
4.8702                0.04260598        148.3061         0.108493          62.997         0.113152        68.10011       0.03306906       -174.7626
4.8716                0.05478805         148.702        0.1122156        60.57607        0.1179334        65.18375       0.04785158        178.8668