! TOUCHSTONE file generated by CST MICROWAVE STUDIO
! Date and time: Sat Nov 30 03:29:14 2024
! Project name: test_tuning.cst
! Parameters = {airCoaxOuterDiameter=3; chamferAngle=35; chamferWidth=24; connectorLength=10; drillingHoleDiameter=4.1; feedLength=60; flareDiameter=130; flareLength=70; gratingDistance=0; gratingGap=1.90274; outletLength=30; polarizerLength=134; probe1Diameter=1.3; probe1Distance=14; probe1Length=12; probe2Diameter=1.3; probe2Distance=0; probe2Length=12; probeLength=12; smaInnerDiameter=1.3; smaOuterDiameter=4.1; transitionCoefficient=1.33; waveguideFeedLength=30; waveguideSide=50; waveguideThickness=3; wireCount=25; wireDiameter=1.17699}
! Header version: 2024
! Port assignment regex: !\s*Touchstone port\s*([0-9]+)\s*=\s*(CST MWS port|CST DES external port|CST DES block port)\s*(.+)\s* \(\"(.*)\"\)(\s*mode\s*([0-9]+))?.*
! Touchstone port assignment:
! Touchstone port 1 = CST MWS port 1 ("Input1")
! Touchstone port 2 = CST MWS port 2 ("Input2")
# GHz S MA R 50
4.6                    0.3158099       -164.3886        0.6135405        58.22989        0.6145256        59.09246        0.2655855       -169.7792
4.6014                 0.3231708       -165.3359        0.6133873        57.19654        0.6155436        58.04986        0.2722938       -170.6295
4.6028                 0.3306212       -166.2802        0.6130817         56.1617        0.6164016        56.99161        0.2790088       -171.4673
4.6042                 0.3381647       -167.2238         0.612626        55.12566        0.6170807        55.91802        0.2857425       -172.2937
4.6056                 0.3458038       -168.1687        0.6120226        54.08864        0.6175621        54.82965        0.2925072       -173.1099
4.607                  0.3535396       -169.1171         0.611274        53.05084        0.6178275         53.7273        0.2993149       -173.9177
4.6084                 0.3613718       -170.0711        0.6103827        52.01245        0.6178595        52.61195        0.3061766       -174.7191
4.6098                 0.3692986       -171.0325        0.6093506        50.97364        0.6176419        51.48484        0.3131026       -175.5162
4.6112                 0.3773166        -172.003        0.6081801        49.93456        0.6171603         50.3474        0.3201017       -176.3113
4.6126                 0.3854208       -172.9844        0.6068734        48.89532        0.6164022        49.20122        0.3271811       -177.1069
4.614                  0.3936049       -173.9781        0.6054321        47.85607        0.6153574        48.04808        0.3343463       -177.9053
4.6154                 0.4018607       -174.9853        0.6038582        46.81691        0.6140184        46.88988        0.3416006       -178.7091
4.6168                 0.4101791       -176.0072        0.6021533        45.77794        0.6123802        45.72868        0.3489454       -179.5204
4.6182                  0.418549       -177.0447        0.6003189        44.73928        0.6104414        44.56656        0.3563798        179.6584
4.6196                 0.4269584       -178.0985        0.5983566        43.70103         0.608203        43.40571        0.3639008        178.8253
4.621                   0.435394       -179.1692        0.5962676        42.66331        0.6056694        42.24834        0.3715033        177.9786
4.6224                 0.4438413        179.7429        0.5940529        41.62623        0.6028481        41.09664          0.37918        177.1166
4.6238                 0.4522849        178.6374        0.5917138        40.58993        0.5997495        39.95279        0.3869219        176.2379
4.6252                 0.4607085        177.5144        0.5892515        39.55453        0.5963872        38.81887        0.3947181        175.3416
4.6266                 0.4690953         176.374        0.5866668         38.5202        0.5927772         37.6969        0.4025564        174.4268
4.628                  0.4774275        175.2164        0.5839608         37.4871        0.5889381        36.58874         0.410423        173.4929
4.6294                 0.4856873         174.042        0.5811345        36.45543        0.5848908        35.49612        0.4183035        172.5397
4.6308                 0.4938563        172.8513        0.5781889        35.42538        0.5806578        34.42052        0.4261823        171.5671
4.6322                 0.5019161         171.645        0.5751251         34.3972        0.5762633        33.36326        0.4340433        170.5752
4.6336                 0.5098484        170.4238        0.5719444        33.37112        0.5717325        32.32537        0.4418704        169.5645
4.635                  0.5176349        169.1885        0.5686481        32.34742        0.5670912        31.30763        0.4496468        168.5355
4.6364                 0.5252574        167.9401        0.5652375         31.3264        0.5623656         30.3105        0.4573564        167.4888
4.6378                 0.5326985        166.6796        0.5617145        30.30837         0.557581        29.33416        0.4649829        166.4253
4.6392                 0.5399411        165.4081        0.5580807        29.29368        0.5527627        28.37849        0.4725108        165.3458
4.6406                 0.5469688        164.1266        0.5543385        28.28267        0.5479342          27.443        0.4799249        164.2515
4.642                   0.553766        162.8364          0.55049        27.27575        0.5431178        26.52695        0.4872109        163.1432
4.6434                 0.5603179        161.5387        0.5465379        26.27332        0.5383333        25.62926        0.4943551        162.0222
4.6448                 0.5666109        160.2347        0.5424853        25.27578        0.5335984        24.74859        0.5013447        160.8895
4.6462                 0.5726323        158.9258        0.5383352        24.28359        0.5289281        23.88333        0.5081679        159.7463
4.6476                 0.5783707        157.6131        0.5340914        23.29719        0.5243343        23.03169        0.5148138        158.5936
4.649                  0.5838158        156.2982        0.5297577        22.31704        0.5198259        22.19168        0.5212721        157.4326
4.6504                 0.5889588        154.9822        0.5253386        21.34361        0.5154085        21.36119        0.5275338        156.2643
4.6518                 0.5937921        153.6666        0.5208386        20.37737        0.5110847        20.53806        0.5335904        155.0897
4.6532                   0.59831        152.3526        0.5162627        19.41878        0.5068539        19.72007        0.5394347        153.9099
4.6546                 0.6025076        151.0417        0.5116163         18.4683        0.5027123        18.90508        0.5450597        152.7258
4.656                  0.6063819         149.735        0.5069049         17.5264        0.4986537        18.09102        0.5504598        151.5383
4.6574                 0.6099316         148.434        0.5021348        16.59349        0.4946691        17.27595        0.5556297        150.3484
4.6588                 0.6131567        147.1398         0.497312        15.67001        0.4907478        16.45815        0.5605647        149.1569
4.6602                 0.6160587        145.8538        0.4924431        14.75632         0.486877        15.63608         0.565261        147.9645
4.6616                 0.6186408        144.5771        0.4875349        13.85278        0.4830429        14.80849        0.5697153         146.772
4.663                  0.6209078        143.3109        0.4825943         12.9597        0.4792305        13.97441        0.5739248        145.5803
4.6644                 0.6228658        142.0564        0.4776284        12.07734        0.4754248        13.13317        0.5778871        144.3901
4.6658                 0.6245226        140.8146        0.4726442        11.20592        0.4716107        12.28439        0.5816008         143.202
4.6672                  0.625887        139.5864         0.467649        10.34559        0.4677734          11.428        0.5850645        142.0167
4.6686                 0.6269696        138.3729        0.4626501        9.496427        0.4638992        10.56423        0.5882777         140.835
4.67                   0.6277817         137.175        0.4576542        8.658467        0.4599754        9.693612        0.5912405        139.6576
4.6714                 0.6283363        135.9933        0.4526684        7.831645         0.455991        8.816897        0.5939532         138.485
4.6728                 0.6286471        134.8287        0.4476995        7.015836        0.4519365        7.935092        0.5964174        137.3181
4.6742                 0.6287291        133.6817        0.4427536        6.210821        0.4478048        7.049394        0.5986345        136.1573
4.6756                 0.6285975        132.5529        0.4378369        5.416307        0.4435905        6.161166        0.6006077        135.0036
4.677                   0.628269        131.4426        0.4329551        4.631909        0.4392906        5.271895          0.60234        133.8574
4.6784                   0.62776        130.3511        0.4281131        3.857164        0.4349043        4.383147        0.6038359        132.7194
4.6798                 0.6270879        129.2787        0.4233156        3.091522        0.4304328        3.496535        0.6051002        131.5904
4.6812                 0.6262699        128.2253        0.4185665        2.334355        0.4258796        2.613668        0.6061387        130.4708
4.6826                 0.6253236        127.1909        0.4138693        1.584956        0.4212499        1.736116        0.6069585        129.3613
4.684                  0.6242663        126.1752        0.4092264       0.8425505         0.416551       0.8653628         0.607567        128.2625
4.6854                 0.6231152        125.1779        0.4046397       0.1062984        0.4117913     0.002774888        0.6079728        127.1748
4.6868                 0.6218866        124.1985        0.4001106      -0.6246943        0.4069806      -0.8504391         0.608185        126.0987
4.6882                 0.6205966        123.2365        0.3956391       -1.351367        0.4021297       -1.693257        0.6082139        125.0346
4.6896                 0.6192603         122.291        0.3912251       -2.074693        0.3972499       -2.524874        0.6080699        123.9829
4.691                  0.6178917        121.3612        0.3868673       -2.795671        0.3923529       -3.344721        0.6077645        122.9438
4.6924                 0.6165041        120.4462        0.3825638       -3.515304        0.3874501       -4.152481        0.6073093        121.9173
4.6938                  0.615109        119.5448        0.3783118       -4.234595        0.3825529       -4.948098        0.6067165        120.9036
4.6952                 0.6137171        118.6559        0.3741082       -4.954529        0.3776718       -5.731777        0.6059981        119.9027
4.6966                 0.6123371        117.7782        0.3699488       -5.676061        0.3728162       -6.503983        0.6051662        118.9142
4.698                  0.6109764        116.9103        0.3658291       -6.400098        0.3679946       -7.265417        0.6042329         117.938
4.6994                 0.6096407         116.051        0.3617439       -7.127495        0.3632139       -8.017003        0.6032098        116.9737
4.7008                  0.608334        115.1986        0.3576877       -7.859016        0.3584792       -8.759836        0.6021076        116.0206
4.7022                 0.6070585        114.3519        0.3536545       -8.595421        0.3537942       -9.495147         0.600937        115.0783
4.7036                  0.605815        113.5094        0.3496381       -9.337195        0.3491606       -10.22435         0.599707         114.146
4.705                  0.6046023        112.6696         0.345632       -10.08494        0.3445786       -10.94888        0.5984259        113.2229
4.7064                 0.6034177        111.8311        0.3416297       -10.83901        0.3400466       -11.67005        0.5971008        112.3081
4.7078                 0.6022571        110.9927        0.3376246       -11.59967        0.3355612       -12.38935        0.5957372        111.4006
4.7092                 0.6011147         110.153        0.3336101       -12.36708        0.3311179       -13.10799        0.5943396        110.4995
4.7106                 0.5999833        109.3109          0.32958       -13.14122        0.3267107       -13.82718        0.5929105        109.6038
4.712                  0.5988551        108.4653         0.325528       -13.92199        0.3223331       -14.54784        0.5914515        108.7124
4.7134                 0.5977206        107.6152        0.3214484       -14.70911        0.3179775       -15.27073        0.5899621        107.8243
4.7148                 0.5965696        106.7597        0.3173358       -15.50221        0.3136362       -15.99631         0.588441        106.9387
4.7162                 0.5953913        105.8982        0.3131852       -16.30072        0.3093013        -16.7248        0.5868853        106.0545
4.7176                 0.5941742        105.0299        0.3089923         -17.104        0.3049652       -17.45613        0.5852909         105.171
4.719                  0.5929065        104.1546        0.3047534       -17.91121        0.3006207        -18.1899        0.5836527        104.2874
4.7204                 0.5915762        103.2719        0.3004653       -18.72143        0.2962615       -18.92546        0.5819648        103.4032
4.7218                 0.5901714        102.3815        0.2961256       -19.53358        0.2918823       -19.66186        0.5802207        102.5178
4.7232                 0.5886802        101.4836        0.2917327       -20.34646        0.2874789        -20.3979        0.5784136         101.631
4.7246                 0.5870909        100.5781        0.2872858       -21.15878        0.2830487       -21.13215        0.5765363        100.7423
4.726                  0.5853927        99.66538        0.2827849       -21.96909        0.2785903       -21.86298        0.5745819        99.85192
4.7274                 0.5835752        98.74574        0.2782307       -22.77587        0.2741041       -22.58863        0.5725438        98.95972
4.7288                 0.5816288        97.81969         0.273625       -23.57748         0.269592       -23.30721        0.5704158        98.06594
4.7302                 0.5795449        96.88786        0.2689701       -24.37221        0.2650573       -24.01679        0.5681927        97.17085
4.7316                  0.577316        95.95093        0.2642695       -25.15826        0.2605051       -24.71544          0.56587        96.27491
4.733                  0.5749356        95.00971        0.2595274       -25.93376        0.2559414       -25.40131        0.5634447        95.37859
4.7344                 0.5723984        94.06507        0.2547486        -26.6968        0.2513737       -26.07264        0.5609144        94.48246
4.7358                 0.5697008        93.11799        0.2499391       -27.44541        0.2468103       -26.72788        0.5582786        93.58713
4.7372                 0.5668402         92.1695        0.2451051       -28.17762        0.2422602       -27.36571        0.5555382         92.6933
4.7386                 0.5638156        91.22068         0.240254       -28.89144        0.2377331       -27.98509        0.5526951        91.80159
4.74                   0.5606272        90.27262        0.2353934       -29.58491        0.2332384       -28.58535        0.5497528        90.91266
4.7414                 0.5572772        89.32644        0.2305319       -30.25611        0.2287857       -29.16619        0.5467162        90.02708
4.7428                 0.5537688         88.3833        0.2256781       -30.90317         0.224384       -29.72774        0.5435911        89.14538
4.7442                 0.5501067         87.4443        0.2208413       -31.52436        0.2200415       -30.27054        0.5403848        88.26805
4.7456                  0.546297        86.51066         0.216031       -32.11803        0.2157654       -30.79561         0.537105        87.39536
4.747                  0.5423474        85.58337         0.211257       -32.68275        0.2115615       -31.30438        0.5337603         86.5275
4.7484                 0.5382666        84.66348        0.2065289       -33.21724        0.2074341       -31.79869        0.5303597        85.66456
4.7498                 0.5340644        83.75198        0.2018565       -33.72049        0.2033857       -32.28073        0.5269124        84.80638
4.7512                  0.529752        82.84973        0.1972492       -34.19178        0.1994172       -32.75301         0.523427        83.95268
4.7526                 0.5253412        81.95756        0.1927163       -34.63068        0.1955273       -33.21825        0.5199125        83.10299
4.754                  0.5208448        81.07613        0.1882663       -35.03716         0.191713       -33.67929        0.5163764         82.2567
4.7554                  0.516276        80.20596        0.1839075       -35.41153        0.1879695       -34.13899        0.5128259        81.41299
4.7568                 0.5116488        79.34745        0.1796468       -35.75459        0.1842903       -34.60016        0.5092669        80.57093
4.7582                 0.5069772        78.50088        0.1754908       -36.06754        0.1806674       -35.06539        0.5057036        79.72941
4.7596                 0.5022754        77.66626        0.1714446       -36.35209        0.1770916       -35.53699         0.502139        78.88722
4.761                  0.4975577        76.84347        0.1675123       -36.61039         0.173553       -36.01689        0.4985745        78.04307
4.7624                 0.4928377        76.03221        0.1636965        -36.8451        0.1700408        -36.5065        0.4950095        77.19564
4.7638                 0.4881287        75.23192        0.1599985        -37.0593        0.1665442        -37.0067        0.4914419         76.3435
4.7652                 0.4834433        74.44186        0.1564181       -37.25651        0.1630524       -37.51774        0.4878676        75.48528
4.7666                 0.4787931        73.66108        0.1529534        -37.4406        0.1595551       -38.03923        0.4842812        74.61968
4.768                  0.4741888        72.88839        0.1496011       -37.61579         0.156043       -38.57005        0.4806755        73.74541
4.7694                 0.4696392        72.12241        0.1463562       -37.78649        0.1525077        -39.1084        0.4770423         72.8613
4.7708                 0.4651521        71.36153        0.1432122       -37.95729         0.148942        -39.6518         0.473372        71.96633
4.7722                 0.4607336        70.60401         0.140161       -38.13287        0.1453408       -40.19705        0.4696543        71.05958
4.7736                 0.4563879        69.84789        0.1371936        -38.3178        0.1417003       -40.74035        0.4658783        70.14041
4.775                  0.4521173        69.09099        0.1342991       -38.51656        0.1380187       -41.27725        0.4620328         69.2083
4.7764                  0.447922        68.33112        0.1314662        -38.7334        0.1342964       -41.80279        0.4581068        68.26286
4.7778                 0.4438005        67.56593        0.1286823       -38.97221        0.1305354       -42.31149        0.4540895        67.30403
4.7792                 0.4397487        66.79294        0.1259343       -39.23651        0.1267399        -42.7975        0.4499707        66.33183
4.7806                  0.435761        66.00974        0.1232086       -39.52926        0.1229159       -43.25462        0.4457413        65.34657
4.782                  0.4318294        65.21376        0.1204911       -39.85293        0.1190709       -43.67644        0.4413931        64.34862
4.7834                 0.4279441        64.40256        0.1177681       -40.20934        0.1152141       -44.05645        0.4369197        63.33857
4.7848                 0.4240934        63.57369        0.1150256       -40.59967        0.1113559       -44.38816        0.4323156        62.31715
4.7862                 0.4202639        62.72478        0.1122503       -41.02437        0.1075075       -44.66526        0.4275776        61.28512
4.7876                 0.4164405        61.85358         0.109429       -41.48316        0.1036807       -44.88172        0.4227039        60.24334
4.789                  0.4126071        60.95793        0.1065496       -41.97498       0.09988783       -45.03204        0.4176946        59.19269
4.7904                 0.4087458        60.03584        0.1036005       -42.49796        0.0961406       -45.11132        0.4125515        58.13402
4.7918                 0.4048384        59.08549        0.1005712       -43.04935       0.09245033       -45.11551         0.407278        57.06813
4.7932                 0.4008654        58.10523       0.09745228       -43.62542       0.08882711       -45.04146        0.4018792        55.99571
4.7946                  0.396807         57.0936       0.09423539       -44.22145       0.08527961       -44.88707        0.3963614         54.9173
4.796                  0.3926429        56.04934       0.09091354       -44.83148       0.08181447       -44.65132         0.390732        53.83325
4.7974                  0.388353        54.97137       0.08748102       -45.44821       0.07843604       -44.33418        0.3849991        52.74367
4.7988                  0.383917        53.85884       0.08393359       -46.06268       0.07514599       -43.93651        0.3791716        51.64842
4.8002                  0.379315        52.71107       0.08026849       -46.66392       0.07194326       -43.45968        0.3732582        50.54699
4.8016                 0.3745279        51.52757       0.07648457       -47.23841       0.06882384       -42.90513        0.3672677        49.43857
4.803                  0.3695368        50.30806       0.07258238       -47.76939       0.06578094       -42.27373        0.3612082        48.32194
4.8044                 0.3643243         49.0524       0.06856439       -48.23575        0.0628052       -41.56487        0.3550865        47.19553
4.8058                 0.3588733        47.76065       0.06443514       -48.61061       0.05988518       -40.77542        0.3489086         46.0573
4.8072                 0.3531686        46.43297       0.06020166       -48.85908       0.05700795       -39.89833        0.3426787        44.90483
4.8086                 0.3471957         45.0697       0.05587397         -48.935        0.0541599         -38.921        0.3363986         43.7353
4.81                    0.340942        43.67131       0.05146592       -48.77605       0.05132781       -37.82333        0.3300685        42.54545
4.8114                  0.334396        42.23836       0.04699653       -48.29606       0.04850008       -36.57503        0.3236859        41.33167
4.8128                  0.327548        40.77154       0.04249229       -47.37303       0.04566827       -35.13256        0.3172457           40.09
4.8142                   0.32039        39.27161       0.03799097       -45.82988       0.04282908       -33.43485        0.3107404        38.81614
4.8156                 0.3129153        37.73943        0.0335484       -43.40422       0.03998676       -31.39794        0.3041599        37.50552
4.817                  0.3051195        36.17595       0.02925058       -39.70248       0.03715651       -28.90835        0.2974918        36.15332
4.8184                 0.2969994        34.58217       0.02523501       -34.14389       0.03436901       -25.81555        0.2907213        34.75448
4.8198                 0.2885539        32.95915       0.02172531       -25.94679       0.03167672       -21.92637         0.283832        33.30376
4.8212                 0.2797834        31.30802       0.01906925       -14.36521       0.02916208       -17.00842        0.2768054        31.79575
4.8226                 0.2706904        29.62996       0.01771479       0.4443775       0.02694651       -10.81951        0.2696224        30.22482
4.824                  0.2612786        27.92619       0.01800336        16.37497       0.02519555       -3.191183        0.2622629        28.58515
4.8254                 0.2515539        26.19802       0.01989104         30.3723       0.02410896        5.814691        0.2547067        26.87065
4.8268                 0.2415235        24.44676       0.02299943        40.88739       0.02388174        15.73819        0.2469339        25.07489
4.8282                 0.2311962        22.67385       0.02690886        48.13477       0.02463999        25.73363        0.2389256        23.19095
4.8296                 0.2205826        20.88075       0.03131173        52.92314       0.02639242        34.88334        0.2306643        21.21127
4.831                  0.2096945        19.06904       0.03601161        55.98602       0.02903994        42.57791        0.2221346        19.12737
4.8324                 0.1985452        17.24041       0.04088509        57.84799       0.03242936        48.63425        0.2133239         16.9295
4.8338                 0.1871493        15.39671       0.04585171        58.86115       0.03640411        53.16444        0.2042229        14.60624
4.8352                 0.1755226        13.53997       0.05085603        59.26057       0.04082901        56.40151        0.1948261        12.14383
4.8366                 0.1636821        11.67256       0.05585746         59.2055       0.04559503        58.59088        0.1851329        9.525315
4.838                  0.1516458        9.797229       0.06082458        58.80624       0.05061539        59.94594         0.175148        6.729389
4.8394                 0.1394329         7.91733       0.06573185         58.1411       0.05581988         60.6384        0.1648829        3.728737
4.8408                  0.127063        6.037148       0.07055775         57.2669       0.06115005        60.80204        0.1543569       0.4876923
4.8422                 0.1145569        4.162395        0.0752835        56.22594       0.06655561        60.54016        0.1435991       -3.041168
4.8436                  0.101936         2.30113       0.07989244        55.05026       0.07199202        59.93266        0.1326511       -6.922002
4.845                  0.0892221       0.4654548       0.08436962         53.7646       0.07741889        59.04174        0.1215716       -11.24313
4.8464                0.07643781       -1.325084       0.08870135        52.38849       0.08279893        57.91649        0.1104428        -16.1281
4.8478                0.06360627       -3.035969       0.09287518        50.93751       0.08809735          56.596       0.09938169        -21.7521
4.8492                0.05075143       -4.598819       0.09687967        49.42435       0.09328144        55.11194       0.08855813       -28.36501
4.8506                  0.037899       -5.854289        0.1007044        47.85944       0.09832039        53.49019       0.07822493       -36.31907
4.852                 0.02508044       -6.321252        0.1043399        46.25151        0.1031852        51.75224       0.06876411       -46.08481
4.8534                0.01236234       -3.552536        0.1077775        44.60798        0.1078487         49.9162       0.06074557       -58.19486
4.8548               0.002104809        89.92245        0.1110095        42.93518        0.1122854        47.99744       0.05495468       -72.97552
4.8562                0.01335096        154.1123         0.114029         41.2386        0.1164719        46.00922       0.05226171       -89.97194
4.8576                0.02581609         156.294        0.1168299        39.52309        0.1203864        43.96318       0.05322377       -107.5674
4.859                 0.03819892        155.6965         0.119407        37.79292        0.1240095        41.86952       0.05769954       -123.7585
4.8604                0.05044148        154.3719        0.1217559        36.05195        0.1273235        39.73744       0.06496988       -137.4352
4.8618                0.06251536        152.7514        0.1238731        34.30368        0.1303132        37.57523       0.07419035       -148.5739
4.8632                0.07439776        150.9816        0.1257556        32.55134        0.1329653         35.3905       0.08467564       -157.6469
4.8646                0.08606799        149.1266        0.1274015         30.7979        0.1352689        33.19033       0.09594378       -165.1754
4.866                 0.09750664        147.2187        0.1288094         29.0462        0.1372154        30.98135        0.1076683       -171.5776
4.8674                 0.1086953        145.2765         0.129979        27.29891        0.1387986        28.76988        0.1196246       -177.1565
4.8688                 0.1196165        143.3113        0.1309102        25.55861        0.1400144        26.56201         0.131653        177.8749
4.8702                 0.1302535        141.3305        0.1316041        23.82784        0.1408613        24.36367        0.1436346        173.3671
4.8716                 0.1405909        139.3395        0.1320623        22.10908        0.1413401        22.18071        0.1554772        169.2144