! TOUCHSTONE file generated by CST MICROWAVE STUDIO
! Date and time: Sat Nov 30 03:29:17 2024
! Project name: test_tuning.cst
! Parameters = {airCoaxOuterDiameter=3; chamferAngle=53; chamferWidth=24; connectorLength=10; drillingHoleDiameter=4.1; feedLength=60; flareDiameter=130; flareLength=70; gratingDistance=0; gratingGap=1.90274; outletLength=30; polarizerLength=134; probe1Diameter=1.3; probe1Distance=14; probe1Length=12; probe2Diameter=1.3; probe2Distance=0; probe2Length=12; probeLength=12; smaInnerDiameter=1.3; smaOuterDiameter=4.1; transitionCoefficient=1.33; waveguideFeedLength=30; waveguideSide=50; waveguideThickness=3; wireCount=25; wireDiameter=1.17699}
! Header version: 2024
! Port assignment regex: !\s*Touchstone port\s*([0-9]+)\s*=\s*(CST MWS port|CST DES external port|CST DES block port)\s*(.+)\s* \(\"(.*)\"\)(\s*mode\s*([0-9]+))?.*
! Touchstone port assignment:
! Touchstone port 1 = CST MWS port 1 ("Input1")
! Touchstone port 2 = CST MWS port 2 ("Input2")
# GHz S MA R 50
4.6                    0.2392163       -169.8308        0.6171755        63.81693        0.6245322        63.58915        0.3022092        -159.738
4.6014                  0.246929       -170.6143          0.61861        62.77375        0.6255003        62.47418        0.3105012        -160.875
4.6028                 0.2545671       -171.4132        0.6198378        61.71579        0.6261872        61.35182        0.3187642        -162.016
4.6042                 0.2621228       -172.2222        0.6208443        60.64435        0.6265907        60.22364        0.3269923       -163.1599
4.6056                 0.2695925       -173.0364         0.621617        59.56077          0.62671        59.09126        0.3351802       -164.3058
4.607                   0.276976       -173.8515        0.6221452        58.46654        0.6265463        57.95621        0.3433236       -165.4527
4.6084                 0.2842774       -174.6638        0.6224204        57.36317         0.626102           56.82        0.3514189       -166.5998
4.6098                 0.2915041         -175.47        0.6224363        56.25227        0.6253814         55.6841        0.3594632       -167.7466
4.6112                 0.2986671       -176.2677        0.6221887        55.13544        0.6243901        54.54992        0.3674539       -168.8924
4.6126                 0.3057805       -177.0551        0.6216756        54.01427        0.6231352        53.41881        0.3753895       -170.0368
4.614                  0.3128609       -177.8312        0.6208971        52.89039        0.6216249        52.29209        0.3832685       -171.1794
4.6154                 0.3199271       -178.5956        0.6198556        51.76531        0.6198689        51.17097        0.3910901         -172.32
4.6168                 0.3269993       -179.3487         0.618555        50.64056        0.6178777         50.0566        0.3988537       -173.4585
4.6182                 0.3340981        179.9084        0.6170013        49.51756         0.615663        48.95004         0.406559       -174.5948
4.6196                 0.3412445        179.1741        0.6152019        48.39768        0.6132373         47.8523        0.4142059        -175.729
4.621                  0.3484583        178.4461        0.6131656        47.28217        0.6106139        46.76425        0.4217942       -176.8611
4.6224                 0.3557582        177.7218        0.6109025        46.17219        0.6078067        45.68669        0.4293239       -177.9915
4.6238                 0.3631602        176.9979        0.6084236        45.06882        0.6048302        44.62032         0.436795       -179.1202
4.6252                 0.3706776        176.2711        0.6057407        43.97299         0.601699        43.56573        0.4442068        179.7522
4.6266                 0.3783202        175.5379        0.6028662        42.88553        0.5984282        42.52338        0.4515588        178.6256
4.628                  0.3860937        174.7946        0.5998128        41.80719        0.5950329        41.49364          0.45885        177.4994
4.6294                 0.3939997        174.0378        0.5965932        40.73856        0.5915279        40.47676        0.4660791        176.3734
4.6308                 0.4020352         173.264        0.5932205        39.68017         0.587928        39.47285        0.4732443        175.2469
4.6322                 0.4101927        172.4703        0.5897075        38.63244        0.5842477        38.48194        0.4803431        174.1196
4.6336                 0.4184605        171.6538        0.5860664        37.59565        0.5805007        37.50388        0.4873728        172.9911
4.635                  0.4268223        170.8124        0.5823095        36.57008        0.5767005        36.53845        0.4943299        171.8607
4.6364                  0.435258        169.9442        0.5784485        35.55585        0.5728593        35.58531        0.5012102        170.7282
4.6378                 0.4437444         169.048        0.5744942        34.55307        0.5689887        34.64398        0.5080092        169.5931
4.6392                 0.4522551        168.1228        0.5704574        33.56174        0.5650994        33.71392        0.5147214         168.455
4.6406                 0.4607613        167.1685        0.5663479        32.58187        0.5612009        32.79444         0.521341        167.3136
4.642                  0.4692327        166.1853        0.5621751        31.61338        0.5573014        31.88483        0.5278615        166.1686
4.6434                  0.477638        165.1738        0.5579478        30.65616         0.553408        30.98427        0.5342758        165.0197
4.6448                 0.4859451        164.1352        0.5536743         29.7101        0.5495266        30.09186        0.5405763        163.8666
4.6462                 0.4941225         163.071        0.5493625        28.77502        0.5456617        29.20669         0.546755        162.7094
4.6476                 0.5021393        161.9828        0.5450196        27.85075        0.5418164        28.32779        0.5528033        161.5478
4.649                  0.5099661        160.8729        0.5406527        26.93709        0.5379927         27.4542        0.5587124        160.3818
4.6504                 0.5175751        159.7436        0.5362685        26.03381        0.5341912        26.58492        0.5644731        159.2115
4.6518                 0.5249413        158.5972        0.5318731        25.14066        0.5304115          25.719        0.5700762        158.0369
4.6532                 0.5320418        157.4365        0.5274726        24.25736        0.5266519        24.85549         0.575512        156.8583
4.6546                 0.5388573        156.2641        0.5230728        23.38359        0.5229095        23.99351         0.580771        155.6759
4.656                  0.5453714        155.0828        0.5186792        22.51902        0.5191809        23.13222        0.5858437        154.4899
4.6574                  0.551571        153.8951        0.5142968        21.66325        0.5154614        22.27084        0.5907207        153.3007
4.6588                 0.5574471        152.7038        0.5099305        20.81584        0.5117461        21.40871        0.5953927        152.1087
4.6602                 0.5629935        151.5114        0.5055847         19.9763        0.5080289        20.54524        0.5998508        150.9145
4.6616                 0.5682079        150.3203        0.5012635        19.14408        0.5043038        19.67993        0.6040865        149.7185
4.663                  0.5730915        149.1328        0.4969701        18.31859        0.5005643        18.81241         0.608092        148.5213
4.6644                 0.5776482         147.951        0.4927078        17.49916        0.4968036        17.94242        0.6118595        147.3236
4.6658                 0.5818851        146.7767        0.4884786        16.68509        0.4930152        17.06981        0.6153825        146.1261
4.6672                 0.5858122        145.6117        0.4842842        15.87559        0.4891925        16.19456        0.6186549        144.9295
4.6686                 0.5894414        144.4573         0.480125        15.06988        0.4853294        15.31675        0.6216714        143.7346
4.67                   0.5927866        143.3147        0.4760011        14.26711        0.4814198         14.4366        0.6244278        142.5422
4.6714                 0.5958632        142.1848        0.4719114        13.46642        0.4774584        13.55443        0.6269207        141.3531
4.6728                 0.5986877        141.0684        0.4678538        12.66696        0.4734404        12.67068        0.6291478        140.1682
4.6742                  0.601277        139.9658        0.4638255        11.86787        0.4693618        11.78587        0.6311078        138.9885
4.6756                 0.6036487        138.8772        0.4598227        11.06835        0.4652194        10.90064        0.6328008        137.8147
4.677                  0.6058192        137.8025        0.4558406        10.26762        0.4610105         10.0157        0.6342276        136.6478
4.6784                 0.6078052        136.7414        0.4518738        9.465009        0.4567339        9.131846        0.6353904        135.4888
4.6798                 0.6096216        135.6936        0.4479163        8.659911        0.4523887        8.249923        0.6362929        134.3385
4.6812                 0.6112824        134.6583        0.4439612        7.851843        0.4479754        7.370842        0.6369396        133.1979
4.6826                 0.6127997        133.6348        0.4400017         7.04045        0.4434954        6.495552        0.6373363        132.0678
4.684                  0.6141838        132.6223        0.4360304        6.225519        0.4389509        5.625028          0.63749        130.9491
4.6854                  0.615443        131.6198        0.4320399        5.406992        0.4343452        4.760263        0.6374092        129.8426
4.6868                 0.6165838        130.6264        0.4280232        4.584978        0.4296824        3.902244        0.6371029        128.7491
4.6882                 0.6176101        129.6411        0.4239735        3.759751        0.4249675        3.051949        0.6365817        127.6693
4.6896                 0.6185246        128.6631        0.4198846        2.931756        0.4202065        2.210324        0.6358569        126.6039
4.691                  0.6193276        127.6915        0.4157509        2.101604        0.4154057        1.378273        0.6349407        125.5535
4.6924                 0.6200182        126.7255        0.4115678        1.270063        0.4105723       0.5566438        0.6338463        124.5186
4.6938                 0.6205939        125.7646         0.407332        0.438045        0.4057142      -0.2537916        0.6325875        123.4997
4.6952                 0.6210514        124.8083         0.403041      -0.3934072        0.4008395       -1.052345        0.6311788        122.4971
4.6966                 0.6213866        123.8561        0.3986939       -1.223144        0.3959568       -1.838431        0.6296348         121.511
4.698                  0.6215949         122.908        0.3942912       -2.049932        0.3910745       -2.611577        0.6279709        120.5416
4.6994                 0.6216721        121.9639        0.3898345       -2.872478        0.3862019       -3.371433        0.6262027         119.589
4.7008                 0.6216138        121.0239        0.3853272       -3.689467        0.3813474       -4.117788        0.6243452         118.653
4.7022                 0.6214165        120.0883        0.3807738       -4.499584        0.3765199       -4.850576         0.622414        117.7334
4.7036                 0.6210779        119.1573        0.3761801       -5.301548        0.3717277       -5.569891        0.6204239        116.8299
4.705                  0.6205962        118.2316        0.3715533       -6.094173        0.3669787       -6.275938        0.6183896         115.942
4.7064                 0.6199719        117.3116        0.3669014       -6.876393        0.3622803       -6.969202         0.616325        115.0692
4.7078                  0.619206        116.3979        0.3622333       -7.647197        0.3576394       -7.650175        0.6142431        114.2107
4.7092                 0.6183018        115.4912        0.3575586       -8.405874        0.3530621       -8.319621        0.6121563        113.3656
4.7106                  0.617264        114.5921        0.3528871       -9.151812        0.3485534       -8.978435        0.6100755        112.5331
4.712                  0.6160989        113.7011         0.348229       -9.884684        0.3441176        -9.62761         0.608011        111.7122
4.7134                  0.614814        112.8188        0.3435941       -10.60439        0.3397581       -10.26832         0.605971        110.9015
4.7148                 0.6134187        111.9455        0.3389919       -11.31109         0.335477       -10.90185        0.6039632           110.1
4.7162                 0.6119226        111.0817        0.3344311       -12.00522        0.3312753       -11.52956        0.6019929        109.3063
4.7176                 0.6103368        110.2274        0.3299198       -12.68746        0.3271531       -12.15293        0.6000644        108.5191
4.719                  0.6086728        109.3828        0.3254646       -13.35873        0.3231091       -12.77345          0.59818        107.7371
4.7204                 0.6069422        108.5476        0.3210709       -14.02021        0.3191413       -13.39268        0.5963411        106.9588
4.7218                 0.6051563        107.7216        0.3167425       -14.67325        0.3152462       -14.01217        0.5945466        106.1828
4.7232                 0.6033262        106.9042        0.3124818       -15.31937        0.3114196       -14.63344        0.5927944        105.4077
4.7246                 0.6014619        106.0949        0.3082892        -15.9602        0.3076562       -15.25797        0.5910806        104.6324
4.726                  0.5995724        105.2929        0.3041638       -16.59742        0.3039499       -15.88717        0.5894001        103.8553
4.7274                 0.5976652        104.4972        0.3001028       -17.23273        0.3002941       -16.52233        0.5877462        103.0753
4.7288                 0.5957464        103.7068        0.2961019       -17.86778        0.2966812       -17.16463        0.5861113        102.2914
4.7302                 0.5938198        102.9207        0.2921557        -18.5041        0.2931033       -17.81512        0.5844862        101.5025
4.7316                 0.5918877        102.1376        0.2882574       -19.14307        0.2895523       -18.47465        0.5828614        100.7075
4.733                  0.5899502        101.3563        0.2843994       -19.78584        0.2860196        -19.1439        0.5812259        99.90591
4.7344                 0.5880051        100.5757        0.2805734       -20.43331        0.2824968       -19.82335        0.5795687        99.09687
4.7358                 0.5860491        99.79474        0.2767709       -21.08609        0.2789753        -20.5133        0.5778781        98.27988
4.7372                 0.5840763        99.01228        0.2729831       -21.74449        0.2754469        -21.2138        0.5761421        97.45461
4.7386                 0.5820796         98.2275         0.269202       -22.40844        0.2719039        -21.9247        0.5743485        96.62076
4.74                   0.5800509        97.43959        0.2654195       -23.07757        0.2683385       -22.64562        0.5724858        95.77822
4.7414                 0.5779808        96.64797        0.2616289       -23.75116        0.2647441       -23.37595        0.5705419        94.92711
4.7428                 0.5758592        95.85215        0.2578242       -24.42818        0.2611145       -24.11489        0.5685057         94.0675
4.7442                 0.5736761        95.05192        0.2540009        -25.1073        0.2574444        -24.8614        0.5663665        93.19976
4.7456                 0.5714213        94.24729         0.250156       -25.78693        0.2537292       -25.61424        0.5641145         92.3243
4.747                  0.5690851        93.43835        0.2462877       -26.46529        0.2499654       -26.37196        0.5617405        91.44165
4.7484                 0.5666588        92.62544        0.2423964       -27.14043        0.2461506       -27.13296        0.5592365        90.55251
4.7498                 0.5641346        91.80901        0.2384837       -27.81029        0.2422834       -27.89542        0.5565955        89.65759
4.7512                 0.5615062        90.98977        0.2345531       -28.47279        0.2383634       -28.65739        0.5538119        88.75781
4.7526                  0.558769        90.16849        0.2306093       -29.12589        0.2343916       -29.41675        0.5508811        87.85405
4.754                    0.55592        89.34595        0.2266588       -29.76766        0.2303697       -30.17131        0.5477999        86.94733
4.7554                 0.5529583        88.52309        0.2227089       -30.39633        0.2263009       -30.91869        0.5445668        86.03867
4.7568                  0.549885        87.70088        0.2187681       -31.01044        0.2221895       -31.65649        0.5411812         85.1292
4.7582                  0.546703        86.88022        0.2148454       -31.60881        0.2180408       -32.38224        0.5376444           84.22
4.7596                  0.543417        86.06202        0.2109501       -32.19067         0.213861       -33.09343        0.5339589        83.31221
4.761                  0.5400336        85.24704        0.2070918       -32.75574        0.2096576       -33.78757        0.5301287        82.40697
4.7624                 0.5365608        84.43599        0.2032795       -33.30419        0.2054386        -34.4622         0.526159        81.50541
4.7638                 0.5330078        83.62939        0.1995218       -33.83674        0.2012132       -35.11494        0.5220565        80.60858
4.7652                 0.5293849        82.82755         0.195826       -34.35467         0.196991       -35.74355         0.517829        79.71752
4.7666                 0.5257025        82.03064        0.1921983       -34.85977        0.1927824       -36.34594        0.5134857        78.83324
4.768                  0.5219718         81.2386        0.1886434       -35.35435        0.1885979       -36.92029        0.5090363        77.95653
4.7694                 0.5182033        80.45113        0.1851641        -35.8412        0.1844488       -37.46502         0.504492        77.08821
4.7708                 0.5144072        79.66766        0.1817613       -36.32345        0.1803459       -37.97894        0.4998643        76.22898
4.7722                 0.5105926        78.88747        0.1784338       -36.80456        0.1763005       -38.46127        0.4951655        75.37932
4.7736                 0.5067671        78.10951        0.1751785       -37.28817        0.1723231       -38.91165        0.4904084        74.53966
4.775                   0.502937        77.33269        0.1719903       -37.77795        0.1684243       -39.33033        0.4856058        73.71017
4.7764                 0.4991065        76.55556        0.1688622       -38.27754        0.1646136       -39.71812        0.4807708         72.8909
4.7778                 0.4952775        75.77673        0.1657858       -38.79035        0.1608996       -40.07648        0.4759161        72.08172
4.7792                   0.49145        74.99458        0.1627512       -39.31949        0.1572901       -40.40755        0.4710541        71.28227
4.7806                 0.4876214        74.20749        0.1597475        -39.8676        0.1537913        -40.7142        0.4661969        70.49199
4.782                   0.483787        73.41384        0.1567634       -40.43684         0.150408             -41        0.4613555        69.71009
4.7834                 0.4799398        72.61208        0.1537871       -41.02871        0.1471434       -41.26923        0.4565398        68.93559
4.7848                 0.4760709        71.80068         0.150807       -41.64406        0.1439986       -41.52686        0.4517591        68.16727
4.7862                 0.4721697         70.9783        0.1478122       -42.28304        0.1409732       -41.77848        0.4470207        67.40371
4.7876                 0.4682239        70.14379        0.1447924        -42.9451        0.1380645       -42.03019        0.4423309        66.64331
4.789                  0.4642203        69.29617        0.1417388       -43.62896        0.1352678       -42.28854        0.4376938        65.88428
4.7904                  0.460145        68.43472        0.1386438       -44.33269        0.1325765       -42.56042        0.4331121        65.12464
4.7918                 0.4559837        67.55896        0.1355018       -45.05374        0.1299819       -42.85289        0.4285865        64.36228
4.7932                 0.4517225         66.6687        0.1323088       -45.78902        0.1274738       -43.17306        0.4241158        63.59496
4.7946                 0.4473476          65.764         0.129063         -46.535        0.1250401       -43.52798        0.4196965        62.82036
4.796                  0.4428465        64.84517        0.1257644       -47.28774        0.1226674       -43.92449        0.4153236        62.03606
4.7974                  0.438208         63.9128        0.1224152       -48.04309        0.1203411       -44.36913        0.4109896        61.23966
4.7988                 0.4334223         62.9677        0.1190192       -48.79679        0.1180455       -44.86802        0.4066854        60.42871
4.8002                 0.4284816        62.01084        0.1155823        -49.5446        0.1157645       -45.42681        0.4024001        59.60079
4.8016                 0.4233802        61.04337        0.1121116       -50.28249        0.1134813       -46.05064         0.398121        58.75358
4.803                  0.4181146        60.06657        0.1086154        -51.0068        0.1111794       -46.74412        0.3938336        57.88481
4.8044                 0.4126834        59.08179        0.1051033        -51.7144        0.1088421       -47.51134        0.3895224        56.99234
4.8058                 0.4070876        58.09041        0.1015849       -52.40297        0.1064531       -48.35592        0.3851706        56.07418
4.8072                 0.4013305        57.09374       0.09807029        -53.0711         0.103997       -49.28103        0.3807604        55.12848
4.8086                 0.3954172        56.09304       0.09456899       -53.71863         0.101459       -50.28953        0.3762731        54.15358
4.81                   0.3893545        55.08944       0.09108973       -54.34675       0.09882528       -51.38401        0.3716896          53.148
4.8114                 0.3831507        54.08385       0.08763997       -54.95825       0.09608329         -52.567        0.3669904        52.11048
4.8128                 0.3768153        53.07694       0.08422539       -55.55767        0.0932217       -53.84105         0.362156        51.03996
4.8142                 0.3703585        52.06909       0.08084947       -56.15142       0.09023052       -55.20895        0.3571669        49.93557
4.8156                 0.3637904        51.06033       0.07751321       -56.74789       0.08710131       -56.67391        0.3520041        48.79667
4.817                  0.3571213        50.05031       0.07421477       -57.35748       0.08382714       -58.23988        0.3466492        47.62283
4.8184                 0.3503604        49.03827        0.0709494       -57.99253       0.08040265       -59.91187        0.3410842        46.41382
4.8198                  0.343516        48.02301        0.0677093       -58.66737       0.07682413       -61.69639        0.3352925        45.16959
4.8212                 0.3365944        47.00288       0.06448382        -59.3982       0.07308967       -63.60199        0.3292582        43.89028
4.8226                 0.3296001        45.97582       0.06125968       -60.20312       0.06919905       -65.64021        0.3229669        42.57623
4.824                  0.3225349         44.9393       0.05802128       -61.10221         0.065154       -67.82662        0.3164055        41.22793
4.8254                  0.315398         43.8904       0.05475134       -62.11788       0.06095827       -70.18259        0.3095624        39.84604
4.8268                 0.3081856        42.82587        0.0514314       -63.27558       0.05661795       -72.73788        0.3024275        38.43138
4.8282                 0.3008908        41.74212       0.04804265       -64.60509       0.05214183       -75.53462        0.2949923        36.98491
4.8296                 0.2935032        40.63532       0.04456665       -66.14279       0.04754214       -78.63393        0.2872502        35.50775
4.831                    0.28601        39.50146       0.04098639       -67.93566       0.04283585       -82.12676        0.2791964        34.00113
4.8324                  0.278395        38.33645       0.03728726       -70.04836       0.03804689       -86.15315        0.2708276        32.46649
4.8338                 0.2706396        37.13612       0.03345866       -72.57578       0.03321065       -90.93731        0.2621425        30.90538
4.8352                 0.2627233        35.89635       0.02949625       -75.66735       0.02838293       -96.85449        0.2531417        29.31952
4.8366                 0.2546234        34.61313       0.02540605       -79.57648       0.02365937       -104.5621        0.2438275        27.71083
4.838                  0.2463163        33.28256       0.02121339       -84.77018       0.01921986       -115.2449        0.2342039        26.08144
4.8394                 0.2377779        31.90094       0.01698538       -92.19613       0.01542794       -130.9158         0.224277        24.43376
4.8408                 0.2289837        30.46473       0.01289712       -103.9812       0.01298708       -153.7252        0.2140541        22.77049
4.8422                 0.2199103        28.97058      0.009448804       -124.9766       0.01279995        178.5947        0.2035447        21.09475
4.8436                 0.2105352        27.41526      0.007958511       -160.5358       0.01501552        154.3589        0.1927596        19.41018
4.845                  0.2008379         25.7956       0.00972402        163.5669       0.01883704         137.331        0.1817114         17.7211
4.8464                 0.1908002        24.10835       0.01374152        142.0365       0.02350673        125.7203        0.1704141         16.0328
4.8478                 0.1804069           22.35       0.01875338        129.6763       0.02861109        117.3564        0.1588833        14.35185
4.8492                 0.1696461        20.51647       0.02425078        121.5644       0.03394321        110.9126        0.1471358        12.68667
4.8506                 0.1585098         18.6027       0.03003753        115.5393       0.03939187        105.6517        0.1351902        11.04842
4.852                  0.1469937          16.602       0.03601904        110.6418       0.04489022        101.1563         0.123066        9.452358
4.8534                 0.1350983        14.50498       0.04213712        106.4033       0.05039336        97.17876        0.1107847        7.920214
4.8548                 0.1228285        12.29781       0.04834811        102.5735       0.05586809        93.56539       0.09836921        6.484342
4.8562                 0.1101941        9.959227       0.05461458        99.00863       0.06128789        90.21684       0.08584455        5.195572
4.8576                0.09721027         7.45489       0.06090196        95.62166       0.06663036        87.06643       0.07323901        4.139179
4.859                 0.08389795        4.726107         0.067177        92.35755       0.07187585        84.06813       0.06058651        3.470715
4.8604                0.07028558        1.664869       0.07340715        89.18042       0.07700668        81.18929        0.0479332        3.507782
4.8618                0.05641288       -1.949071       0.07956038        86.06646       0.08200665        78.40628       0.03535812        5.012649
4.8632                0.04234334       -6.638355       0.08560517        82.99958       0.08686081        75.70166       0.02306026        10.34127
4.8646                0.02821485       -13.98773       0.09151068        79.96896       0.09155535        73.06243       0.01196298        30.53622
4.866                 0.01458902       -31.55998       0.09724679        76.96737       0.09607738         70.4788      0.009084281        101.7572
4.8674               0.007771476       -110.1582        0.1027845         73.9901        0.1004151        67.94322       0.01859767        137.4854
4.8688                0.01874718       -162.0941        0.1080959        71.03429        0.1045574        65.44994       0.03044034        145.8769
4.8702                0.03307341       -174.7621        0.1131545        68.09847        0.1084943        62.99458       0.04261291        148.3065
4.8716                0.04785587        178.8668        0.1179356        65.18212        0.1122166        60.57374       0.05479488        148.7015