! TOUCHSTONE file generated by CST MICROWAVE STUDIO
! Date and time: Sat Nov 30 03:29:16 2024
! Project name: test_tuning.cst
! Parameters = {airCoaxOuterDiameter=3; chamferAngle=47; chamferWidth=24; connectorLength=10; drillingHoleDiameter=4.1; feedLength=60; flareDiameter=130; flareLength=70; gratingDistance=0; gratingGap=1.90274; outletLength=30; polarizerLength=134; probe1Diameter=1.3; probe1Distance=14; probe1Length=12; probe2Diameter=1.3; probe2Distance=0; probe2Length=12; probeLength=12; smaInnerDiameter=1.3; smaOuterDiameter=4.1; transitionCoefficient=1.33; waveguideFeedLength=30; waveguideSide=50; waveguideThickness=3; wireCount=25; wireDiameter=1.17699}
! Header version: 2024
! Port assignment regex: !\s*Touchstone port\s*([0-9]+)\s*=\s*(CST MWS port|CST DES external port|CST DES block port)\s*(.+)\s* \(\"(.*)\"\)(\s*mode\s*([0-9]+))?.*
! Touchstone port assignment:
! Touchstone port 1 = CST MWS port 1 ("Input1")
! Touchstone port 2 = CST MWS port 2 ("Input2")
# GHz S MA R 50
4.6                    0.2183736         -164.62        0.6086606        66.63173         0.611252        67.40412        0.2420397       -158.0372
4.6014                 0.2249696       -165.3518        0.6099535        65.71378        0.6137257        66.43788        0.2492111       -158.8443
4.6028                  0.231539       -166.0772        0.6111373        64.79087        0.6160007         65.4515        0.2564545       -159.6682
4.6042                 0.2380899       -166.7942        0.6122152        63.86303         0.618057         64.4466        0.2637614       -160.5084
4.6056                 0.2446325       -167.5016          0.61319         62.9302        0.6198769        63.42492        0.2711236       -161.3643
4.607                  0.2511786       -168.1986        0.6140636         61.9922         0.621445         62.3883        0.2785328        -162.235
4.6084                 0.2577414        -168.885        0.6148371         61.0488        0.6227482        61.33869        0.2859812       -163.1197
4.6098                 0.2643354       -169.5614        0.6155102        60.09972        0.6237761        60.27807        0.2934614       -164.0176
4.6112                 0.2709754       -170.2286        0.6160818         59.1446        0.6245212        59.20852        0.3009665       -164.9275
4.6126                 0.2776767       -170.8881        0.6165492        58.18313        0.6249782        58.13208        0.3084898       -165.8486
4.614                  0.2844541       -171.5417        0.6169087        57.21496        0.6251449         57.0508        0.3160258       -166.7799
4.6154                  0.291322       -172.1918        0.6171553        56.23981        0.6250217        55.96671        0.3235691       -167.7206
4.6168                 0.2982936       -172.8408        0.6172827        55.25743        0.6246115        54.88179        0.3311153       -168.6697
4.6182                 0.3053803       -173.4916        0.6172838        54.26767        0.6239196        53.79796        0.3386605       -169.6266
4.6196                 0.3125919       -174.1472        0.6171502        53.27048        0.6229538        52.71705        0.3462015       -170.5904
4.621                  0.3199357       -174.8106        0.6168734         52.2659         0.621724        51.64079        0.3537355       -171.5608
4.6224                 0.3274167       -175.4848        0.6164439        51.25411        0.6202422        50.57081        0.3612603       -172.5371
4.6238                 0.3350369       -176.1728        0.6158523        50.23543         0.618522        49.50857        0.3687743       -173.5189
4.6252                 0.3427956       -176.8773        0.6150892        49.21031        0.6165786        48.45542        0.3762758       -174.5061
4.6266                  0.350689        -177.601        0.6141453        48.17937        0.6144287        47.41255        0.3837639       -175.4984
4.628                  0.3587107       -178.3461        0.6130122        47.14335        0.6120897        46.38096        0.3912374       -176.4959
4.6294                  0.366851       -179.1147        0.6116821        46.10317          0.60958        45.36149        0.3986952       -177.4985
4.6308                 0.3750978       -179.9083        0.6101483        45.05985        0.6069182        44.35478        0.4061361       -178.5063
4.6322                 0.3834364        179.2718        0.6084057        44.01456        0.6041235        43.36129        0.4135588       -179.5196
4.6336                 0.3918499        178.4248        0.6064507        42.96858        0.6012145        42.38128        0.4209613        179.4614
4.635                  0.4003195          177.55        0.6042812        41.92331        0.5982096        41.41483        0.4283414        178.4362
4.6364                 0.4088246        176.6474        0.6018972         40.8802        0.5951268         40.4618        0.4356963        177.4046
4.6378                 0.4173434        175.7172        0.5993009        39.84079        0.5919826        39.52193        0.4430224        176.3662
4.6392                 0.4258533        174.7598        0.5964963        38.80666        0.5887928        38.59472        0.4503155        175.3205
4.6406                 0.4343309        173.7762        0.5934899        37.77939        0.5855715        37.67955        0.4575705        174.2672
4.642                  0.4427527        172.7674          0.59029        36.76056        0.5823317        36.77565        0.4647815        173.2058
4.6434                 0.4510952        171.7347        0.5869075        35.75173        0.5790842         35.8821        0.4719416        172.1359
4.6448                 0.4593356        170.6796        0.5833549        34.75439        0.5758381        34.99793        0.4790432        171.0573
4.6462                 0.4674515        169.6038        0.5796467        33.76992         0.572601        34.12202        0.4860778        169.9696
4.6476                 0.4754216         168.509        0.5757992        32.79962        0.5693781        33.25327        0.4930358        168.8727
4.649                  0.4832261        167.3973        0.5718303        31.84461        0.5661729        32.39049        0.4999072        167.7664
4.6504                 0.4908462        166.2705        0.5677587        30.90589        0.5629872        31.53252         0.506681        166.6507
4.6518                 0.4982651        165.1306        0.5636048        29.98418        0.5598206        30.67821        0.5133455        165.5256
4.6532                 0.5054677        163.9797         0.559389        29.08007        0.5566716        29.82645        0.5198887        164.3913
4.6546                 0.5124407        162.8197        0.5551321        28.19383        0.5535369        28.97621        0.5262982        163.2479
4.656                  0.5191729        161.6526         0.550855        27.32553        0.5504117        28.12656        0.5325609        162.0957
4.6574                  0.525655        160.4803        0.5465781        26.47493        0.5472905        27.27667         0.538664        160.9353
4.6588                 0.5318798        159.3047        0.5423209        25.64156        0.5441665        26.42584        0.5445945         159.767
4.6602                  0.537842        158.1276        0.5381015        24.82464        0.5410327        25.57349        0.5503394        158.5916
4.6616                 0.5435384        156.9505        0.5339369        24.02312        0.5378811        24.71923        0.5558861        157.4096
4.663                  0.5489677         155.775        0.5298417         23.2357         0.534704        23.86277        0.5612224        156.2219
4.6644                 0.5541302        154.6025        0.5258287        22.46085        0.5314935        23.00403        0.5663367        155.0293
4.6658                  0.559028        153.4344         0.521908        21.69684         0.528242        22.14305        0.5712179        153.8328
4.6672                 0.5636648        152.2719        0.5180872        20.94173        0.5249425        21.28002        0.5758564        152.6333
4.6686                 0.5680452        151.1158        0.5143708        20.19349        0.5215884        20.41529        0.5802427        151.4319
4.67                   0.5721754        149.9673        0.5107609        19.44997        0.5181741        19.54932         0.584369        150.2297
4.6714                 0.5760625        148.8269        0.5072562        18.70899        0.5146953        18.68271        0.5882287        149.0279
4.6728                 0.5797142        147.6953         0.503853        17.96838        0.5111483        17.81615        0.5918163        147.8277
4.6742                 0.5831389        146.5729        0.5005446        17.22603        0.5075307        16.95042        0.5951281        146.6302
4.6756                 0.5863452        145.4602        0.4973219        16.47995        0.5038418        16.08636        0.5981615        145.4367
4.677                  0.5893422        144.3573        0.4941737        15.72829        0.5000817        15.22488        0.6009155        144.2484
4.6784                 0.5921384        143.2644        0.4910866        14.96941        0.4962522        14.36688        0.6033911        143.0665
4.6798                 0.5947428        142.1813        0.4880456        14.20191         0.492356        13.51331        0.6055905        141.8922
4.6812                 0.5971635        141.1081        0.4850348        13.42465        0.4883975        12.66506        0.6075175        140.7266
4.6826                 0.5994084        140.0446        0.4820373         12.6368        0.4843818        11.82301        0.6091781         139.571
4.684                  0.6014846        138.9904        0.4790356        11.83781        0.4803154        10.98797        0.6105789        138.4263
4.6854                 0.6033988        137.9454        0.4760127        11.02746        0.4762055        10.16067        0.6117288        137.2936
4.6868                 0.6051564        136.9091        0.4729518        10.20586        0.4720604        9.341736        0.6126376        136.1737
4.6882                 0.6067626        135.8814        0.4698367        9.373402        0.4678884        8.531687        0.6133166        135.0675
4.6896                 0.6082214        134.8616        0.4666529        8.530805        0.4636989          7.7309        0.6137785        133.9758
4.691                  0.6095361        133.8496        0.4633869        7.679054         0.459501        6.939606        0.6140365        132.8992
4.6924                 0.6107095        132.8449        0.4600275         6.81939        0.4553041        6.157878        0.6141051        131.8381
4.6938                 0.6117431        131.8473        0.4565651        5.953289        0.4511173        5.385626        0.6139996         130.793
4.6952                 0.6126386        130.8566        0.4529927        5.082422        0.4469494        4.622595        0.6137352        129.7641
4.6966                 0.6133967        129.8724        0.4493056        4.208621        0.4428084        3.868355         0.613328        128.7515
4.698                  0.6140179        128.8947        0.4455014        3.333846        0.4387018        3.122319        0.6127939        127.7552
4.6994                 0.6145025        127.9233        0.4415805        2.460141        0.4346359        2.383744        0.6121487        126.7749
4.7008                 0.6148508        126.9582        0.4375455        1.589596        0.4306162        1.651746        0.6114082        125.8103
4.7022                  0.615063        125.9994        0.4334018       0.7243027        0.4266466        0.925315         0.610587         124.861
4.7036                 0.6151398        125.0471        0.4291567      -0.1336874          0.42273       0.2033414        0.6096995        123.9264
4.705                  0.6150816        124.1014          0.42482      -0.9824067        0.4188678       -0.515365        0.6087588        123.0056
4.7064                 0.6148902        123.1624        0.4204031       -1.820009        0.4150599       -1.232066        0.6077772        122.0979
4.7078                  0.614567        122.2304        0.4159194        -2.64484        0.4113051        -1.94797        0.6067652        121.2022
4.7092                 0.6141146        121.3056        0.4113834       -3.455408        0.4076004       -2.664362        0.6057325        120.3175
4.7106                 0.6135363        120.3884        0.4068108       -4.250514        0.4039418       -3.382487        0.6046865        119.4426
4.712                  0.6128359        119.4789         0.402218       -5.029219         0.400324       -4.103458        0.6036336        118.5763
4.7134                 0.6120181        118.5775        0.3976216       -5.790894        0.3967408       -4.828327        0.6025782        117.7174
4.7148                 0.6110883        117.6845        0.3930384       -6.535251        0.3931848       -5.558017        0.6015227        116.8646
4.7162                 0.6100526           116.8        0.3884844       -7.262347         0.389648       -6.293296        0.6004684        116.0167
4.7176                 0.6089176        115.9242         0.383975       -7.972605        0.3861221       -7.034763        0.5994143        115.1724
4.719                  0.6076907        115.0572        0.3795244       -8.666808        0.3825982       -7.782821        0.5983583        114.3306
4.7204                 0.6063794        114.1991        0.3751453       -9.346081        0.3790674       -8.537676        0.5972965        113.4901
4.7218                 0.6049919        113.3498        0.3708483       -10.01189        0.3755209       -9.299322        0.5962237          112.65
4.7232                 0.6035362        112.5092        0.3666422       -10.66599        0.3719504       -10.06753        0.5951334        111.8092
4.7246                 0.6020204        111.6771        0.3625334       -11.31039        0.3683478       -10.84187        0.5940184         110.967
4.726                  0.6004523        110.8532        0.3585258       -11.94733        0.3647061       -11.62167        0.5928703        110.1227
4.7274                 0.5988398        110.0371        0.3546208       -12.57916        0.3610191        -12.4061        0.5916803        109.2757
4.7288                 0.5971896        109.2282        0.3508174       -13.20833        0.3572814       -13.19408         0.590439        108.4257
4.7302                 0.5955084         108.426        0.3471121       -13.83733        0.3534893       -13.98442        0.5891371        107.5724
4.7316                 0.5938015        107.6299         0.343499       -14.46855        0.3496402       -14.77571        0.5877652        106.7156
4.733                  0.5920737         106.839        0.3399702       -15.10428        0.3457327       -15.56646         0.586314        105.8555
4.7344                 0.5903282        106.0526        0.3365158       -15.74663        0.3417672       -16.35503         0.584775         104.992
4.7358                 0.5885678        105.2698        0.3331247       -16.39744        0.3377454       -17.13973        0.5831401        104.1257
4.7372                 0.5867933        104.4899        0.3297842       -17.05825        0.3336707       -17.91879        0.5814018        103.2568
4.7386                 0.5850047        103.7119        0.3264811       -17.73028        0.3295478       -18.69046        0.5795541        102.3859
4.74                   0.5832008         102.935        0.3232016       -18.41437        0.3253829       -19.45298        0.5775918        101.5137
4.7414                 0.5813788        102.1583         0.319932       -19.11094        0.3211835       -20.20467        0.5755109        100.6408
4.7428                 0.5795354        101.3811        0.3166588       -19.82003        0.3169584       -20.94391         0.573309        99.76791
4.7442                 0.5776657        100.6027        0.3133696       -20.54128        0.3127173       -21.66923        0.5709846        98.89595
4.7456                 0.5757642        99.82241        0.3100526       -21.27392         0.308471       -22.37936         0.568538        98.02576
4.747                  0.5738246        99.03975        0.3066977       -22.01683        0.3042309        -23.0732        0.5659706        97.15819
4.7484                   0.57184        98.25419        0.3032963       -22.76851        0.3000089       -23.74992        0.5632855        96.29405
4.7498                 0.5698032        97.46558        0.2998418       -23.52721        0.2958172       -24.40899         0.560487        95.43419
4.7512                 0.5677068         96.6736        0.2963296       -24.29087        0.2916681       -25.05017        0.5575803         94.5794
4.7526                 0.5655432        95.87828         0.292757       -25.05724        0.2875734        -25.6736        0.5545724         93.7304
4.754                  0.5633054         95.0796         0.289124        -25.8239        0.2835448       -26.27977         0.551471        92.88786
4.7554                 0.5609865        94.27783        0.2854324       -26.58833        0.2795928       -26.86957        0.5482846        92.05229
4.7568                 0.5585806        93.47324        0.2816864       -27.34798        0.2757272       -27.44427        0.5450227         91.2241
4.7582                 0.5560822        92.66625        0.2778922       -28.10031        0.2719565       -28.00554         0.541695        90.40373
4.7596                 0.5534872        91.85736         0.274058        -28.8429        0.2682875       -28.55541         0.538312        89.59124
4.761                   0.550792        91.04717        0.2701937       -29.57346        0.2647257       -29.09626        0.5348839        88.78669
4.7624                 0.5479946        90.23631        0.2663106       -30.28996        0.2612745       -29.63078        0.5314211        87.99001
4.7638                 0.5450943         89.4255        0.2624215       -30.99066        0.2579355       -30.16193         0.527934        87.20088
4.7652                 0.5420913        88.61547        0.2585398        -31.6742        0.2547083       -30.69285        0.5244317         86.4189
4.7666                 0.5389877        87.80693        0.2546796       -32.33964        0.2515905       -31.22681        0.5209233        85.64349
4.768                  0.5357863        87.00064        0.2508552       -32.98653        0.2485775       -31.76716        0.5174171        84.87389
4.7694                 0.5324914         86.1972        0.2470806       -33.61496        0.2456633       -32.31722        0.5139198        84.10926
4.7708                 0.5291083        85.39728        0.2433692        -34.2256        0.2428398       -32.88021        0.5104372        83.34855
4.7722                 0.5256432        84.60143        0.2397335        -34.8197        0.2400972       -33.45921        0.5069737        82.59066
4.7736                 0.5221034        83.81005        0.2361845       -35.39913        0.2374248       -34.05702        0.5035323         81.8344
4.775                  0.5184967        83.02348        0.2327315        -35.9663        0.2348103       -34.67617        0.5001144        81.07847
4.7764                 0.5148313        82.24188         0.229382       -36.52421        0.2322411       -35.31884        0.4967199        80.32156
4.7778                 0.5111156        81.46532         0.226141       -37.07632        0.2297036       -35.98679         0.493347        79.56229
4.7792                  0.507358         80.6937        0.2230111       -37.62652        0.2271842       -36.68138        0.4899923        78.79927
4.7806                 0.5035668         79.9267        0.2199925       -38.17901        0.2246695        -37.4035        0.4866511         78.0312
4.782                  0.4997495        79.16388        0.2170827       -38.73821         0.222146       -38.15361        0.4833171         77.2568
4.7834                 0.4959131        78.40469        0.2142768       -39.30862        0.2196014       -38.93169        0.4799829        76.47488
4.7848                 0.4920638        77.64836        0.2115673       -39.89471        0.2170238        -39.7373        0.4766396        75.68429
4.7862                 0.4882063        76.89394        0.2089449       -40.50081        0.2144027       -40.56957        0.4732777        74.88406
4.7876                 0.4843443        76.14051         0.206398       -41.13095        0.2117288       -41.42724        0.4698866        74.07334
4.789                  0.4804798        75.38686        0.2039137       -41.78883        0.2089944       -42.30867        0.4664553        73.25144
4.7904                 0.4766135        74.63178        0.2014778       -42.47762        0.2061934       -43.21191        0.4629724         72.4178
4.7918                 0.4727444        73.87404        0.1990754       -43.20003        0.2033212       -44.13474        0.4594263        71.57207
4.7932                 0.4688696        73.11233        0.1966912       -43.95812        0.2003753       -45.07466        0.4558053        70.71409
4.7946                 0.4649852        72.34532        0.1943099       -44.75336        0.1973549       -46.02904        0.4520982        69.84381
4.796                   0.461085         71.5718        0.1919168       -45.58659         0.194261        -46.9951        0.4482943        68.96145
4.7974                 0.4571618        70.79055        0.1894979       -46.45805        0.1910966       -47.96995        0.4443833        68.06733
4.7988                 0.4532071         70.0005        0.1870404       -47.36736        0.1878663       -48.95074        0.4403559          67.162
4.8002                  0.449211        69.20065        0.1845331       -48.31361        0.1845764       -49.93463        0.4362039        66.24612
4.8016                  0.445163         68.3902        0.1819662        -49.2954        0.1812348       -50.91894        0.4319201        65.32054
4.803                  0.4410517        67.56847        0.1793322       -50.31088        0.1778508       -51.90115        0.4274987        64.38623
4.8044                 0.4368653        66.73502        0.1766255       -51.35788        0.1744349       -52.87908        0.4229349        63.44429
4.8058                  0.432592        65.88961        0.1738426        -52.4339        0.1709987       -53.85089        0.4182259        62.49589
4.8072                 0.4282199        65.03221        0.1709823       -53.53629        0.1675544       -54.81517        0.4133701        61.54233
4.8086                 0.4237378        64.16298        0.1680457       -54.66229        0.1641151       -55.77115        0.4083672        60.58495
4.81                   0.4191345        63.28237        0.1650358       -55.80913        0.1606938       -56.71867        0.4032187        59.62516
4.8114                 0.4144005          62.391        0.1619578       -56.97415        0.1573035       -57.65833        0.3979274        58.66438
4.8128                 0.4095268        61.48971        0.1588186       -58.15489        0.1539571       -58.59163        0.3924977        57.70401
4.8142                 0.4045061        60.57956         0.155627       -59.34921        0.1506667       -59.52096        0.3869348        56.74551
4.8156                 0.3993324        59.66181        0.1523931       -60.55546        0.1474433       -60.44976        0.3812457        55.79021
4.817                  0.3940012        58.73787        0.1491281       -61.77248        0.1442966       -61.38254        0.3754382        54.83941
4.8184                   0.38851        57.80928        0.1458443       -62.99985        0.1412349       -62.32493         0.369521        53.89433
4.8198                  0.382858        56.87775        0.1425542         -64.238        0.1382645       -63.28364        0.3635036        52.95608
4.8212                 0.3770461        55.94507        0.1392709       -65.48829        0.1353898       -64.26649        0.3573959        52.02559
4.8226                 0.3710771        55.01312        0.1360069       -66.75314        0.1326128       -65.28234        0.3512085         51.1037
4.824                  0.3649557         54.0838        0.1327744       -68.03621        0.1299334       -66.34097        0.3449518        50.19101
4.8254                 0.3586879        53.15904        0.1295848        -69.3425         0.127349       -67.45302        0.3386364        49.28794
4.8268                 0.3522814        52.24076        0.1264481       -70.67826        0.1248552       -68.62984        0.3322722        48.39473
4.8282                 0.3457454         51.3308        0.1233729       -72.05131        0.1224451       -69.88331        0.3258691        47.51134
4.8296                   0.33909        50.43096        0.1203661       -73.47087        0.1201103       -71.22576        0.3194359        46.63753
4.831                  0.3323264        49.54288        0.1174327       -74.94764        0.1178408       -72.66978        0.3129805         45.7728
4.8324                 0.3254663        48.66808        0.1145759       -76.49368        0.1156258       -74.22818        0.3065096        44.91643
4.8338                  0.318522         47.8079        0.1117968       -78.12246        0.1134537       -75.91387        0.3000288        44.06744
4.8352                 0.3115056        46.96346         0.109095       -79.84868        0.1113127        -77.7398        0.2935421        43.22464
4.8366                 0.3044293        46.13565        0.1064683       -81.68814        0.1091918       -79.71894        0.2870518        42.38662
4.838                  0.2973044        45.32512        0.1039135       -83.65767        0.1070807       -81.86442        0.2805585        41.55181
4.8394                 0.2901417        44.53224        0.1014267       -85.77498        0.1049709       -84.18947        0.2740614        40.71845
4.8408                 0.2829506        43.75713       0.09900398       -88.05849        0.1028559       -86.70756        0.2675576         39.8847
4.8422                 0.2757393        42.99961       0.09664184       -90.52736         0.100732       -89.43248        0.2610424        39.04864
4.8436                  0.268514         42.2593       0.09433811       -93.20115       0.09859878       -92.37843        0.2545098        38.20832
4.845                  0.2612794        41.53552       0.09209272       -96.09988       0.09645982       -95.56001        0.2479517        37.36182
4.8464                 0.2540379         40.8275       0.08990849       -99.24373       0.09432294       -98.99225         0.241359        36.50731
4.8478                 0.2467897        40.13425       0.08779194       -102.6529       0.09220095       -102.6904         0.234721        35.64313
4.8492                 0.2395327        39.45479       0.08575412       -106.3469       0.09011205       -106.6695        0.2280261        34.76781
4.8506                  0.232263        38.78815        0.0838113       -110.3445       0.08808016        -110.944        0.2212616         33.8802
4.852                  0.2249739        38.13352       0.08198556       -114.6621       0.08613526       -115.5267        0.2144144        32.97949
4.8534                  0.217657        37.49035       0.08030517       -119.3128       0.08431327       -120.4273        0.2074708        32.06537
4.8548                 0.2103021        36.85859       0.07880461        -124.305        0.0826558        -125.651        0.2004172        31.13803
4.8562                 0.2028973        36.23873       0.07752404       -129.6398       0.08120938       -131.1962        0.1932401        30.19835
4.8576                 0.1954297        35.63217       0.07650836        -135.309        0.0800241       -137.0525        0.1859264        29.24799
4.859                  0.1878853        35.04138        0.0758054       -141.2929       0.07915153       -143.1985         0.178464        28.28954
4.8604                 0.1802501        34.47022       0.07546334       -147.5588       0.07864215       -149.6004        0.1708418        27.32674
4.8618                 0.1725101        33.92438       0.07552769       -154.0608       0.07854218       -156.2116        0.1630497        26.36474
4.8632                 0.1646521        33.41182       0.07603788       -160.7408        0.0788902       -162.9747        0.1550796        25.41042
4.8646                 0.1566643        32.94343       0.07702387       -167.5321       0.07971418       -169.8242        0.1469253        24.47292
4.866                  0.1485372        32.53386       0.07850366       -174.3641       0.08102921       -176.6915        0.1385827        23.56427
4.8674                  0.140264        32.20269        0.0804818        178.8323       0.08283648        176.4899        0.1300502         22.7004
4.8688                  0.131842        31.97604       0.08294921        172.1189       0.08512352        169.7793        0.1213295        21.90259
4.8702                  0.123274        31.88893       0.08588423        165.5472       0.08786567        163.2257        0.1124256        21.19966
4.8716                 0.1145692        31.98861        0.0892547        159.1556        0.0910283        156.8651        0.1033479        20.63142