! TOUCHSTONE file generated by CST MICROWAVE STUDIO
! Date and time: Sat Nov 30 03:29:17 2024
! Project name: test_tuning.cst
! Parameters = {airCoaxOuterDiameter=3; chamferAngle=51; chamferWidth=24; connectorLength=10; drillingHoleDiameter=4.1; feedLength=60; flareDiameter=130; flareLength=70; gratingDistance=0; gratingGap=1.90274; outletLength=30; polarizerLength=134; probe1Diameter=1.3; probe1Distance=14; probe1Length=12; probe2Diameter=1.3; probe2Distance=0; probe2Length=12; probeLength=12; smaInnerDiameter=1.3; smaOuterDiameter=4.1; transitionCoefficient=1.33; waveguideFeedLength=30; waveguideSide=50; waveguideThickness=3; wireCount=25; wireDiameter=1.17699}
! Header version: 2024
! Port assignment regex: !\s*Touchstone port\s*([0-9]+)\s*=\s*(CST MWS port|CST DES external port|CST DES block port)\s*(.+)\s* \(\"(.*)\"\)(\s*mode\s*([0-9]+))?.*
! Touchstone port assignment:
! Touchstone port 1 = CST MWS port 1 ("Input1")
! Touchstone port 2 = CST MWS port 2 ("Input2")
# GHz S MA R 50
4.6                    0.2322486       -165.0524        0.6131952        65.38546        0.6088428        65.11387        0.2563646       -161.1319
4.6014                 0.2395079       -165.7863        0.6151587        64.40304        0.6103776        64.18848        0.2636787       -161.7717
4.6028                 0.2468024       -166.5383        0.6169541        63.40176         0.611832        63.24991        0.2711824       -162.4268
4.6042                 0.2541228       -167.3068          0.61856        62.38267        0.6131944        62.29795        0.2788744       -163.1005
4.6056                 0.2614601       -168.0905        0.6199566        61.34706        0.6144525        61.33253        0.2867508        -163.796
4.607                   0.268806       -168.8875         0.621126        60.29641         0.615594        60.35364         0.294805       -164.5159
4.6084                 0.2761532       -169.6961        0.6220528        59.23236        0.6166058        59.36143        0.3030286       -165.2622
4.6098                 0.2834956       -170.5145        0.6227238        58.15667         0.617475        58.35616        0.3114105       -166.0368
4.6112                 0.2908284       -171.3411        0.6231289        57.07118         0.618189        57.33817        0.3199378       -166.8407
4.6126                 0.2981488        -172.174        0.6232606        55.97785         0.618735        56.30799        0.3285959       -167.6749
4.614                   0.305455       -173.0117        0.6231144         54.8786        0.6191008        55.26622        0.3373686       -168.5397
4.6154                 0.3127472       -173.8529        0.6226884         53.7754        0.6192749        54.21357        0.3462381       -169.4353
4.6168                 0.3200273       -174.6965        0.6219839        52.67018        0.6192465        53.15087        0.3551858       -170.3612
4.6182                 0.3272984       -175.5414        0.6210046        51.56479        0.6190055        52.07904        0.3641921       -171.3171
4.6196                 0.3345654       -176.3871        0.6197569        50.46104        0.6185432        50.99911        0.3732368        -172.302
4.621                   0.341834       -177.2331        0.6182492        49.36062        0.6178516        49.91219        0.3822992       -173.3148
4.6224                 0.3491111       -178.0796        0.6164919        48.26509        0.6169244        48.81946        0.3913584       -174.3543
4.6238                 0.3564041       -178.9266        0.6144978        47.17586        0.6157565        47.72219        0.4003936       -175.4192
4.6252                 0.3637206       -179.7748        0.6122802        46.09422        0.6143442        46.62171        0.4093842       -176.5077
4.6266                 0.3710682        179.3751        0.6098542        45.02128        0.6126854        45.51939        0.4183097       -177.6184
4.628                  0.3784541        178.5219        0.6072356        43.95797        0.6107797        44.41666        0.4271506       -178.7495
4.6294                 0.3858844        177.6643        0.6044404        42.90506        0.6086284        43.31495        0.4358877       -179.8991
4.6308                 0.3933641         176.801        0.6014852        41.86314        0.6062341        42.21575        0.4445029        178.9344
4.6322                 0.4008967        175.9302        0.5983859        40.83263        0.6036013        41.12054        0.4529791        177.7529
4.6336                 0.4084836        175.0503        0.5951584        39.81378        0.6007365         40.0308        0.4613001        176.5583
4.635                  0.4161241        174.1595         0.591818        38.80671        0.5976472        38.94799        0.4694509        175.3524
4.6364                 0.4238153        173.2562        0.5883789        37.81137        0.5943428        37.87357        0.4774179        174.1369
4.6378                 0.4315515        172.3387        0.5848544        36.82761        0.5908343        36.80892        0.4851888        172.9135
4.6392                 0.4393245        171.4055        0.5812565        35.85515         0.587134        35.75539        0.4927525         171.684
4.6406                 0.4471236        170.4552        0.5775959        34.89363        0.5832555        34.71425        0.5000995          170.45
4.642                  0.4549353        169.4867        0.5738824        33.94265        0.5792137        33.68671        0.5072217        169.2131
4.6434                  0.462744         168.499        0.5701241        33.00171        0.5750242        32.67386        0.5141124        167.9747
4.6448                 0.4705317        167.4916         0.566328        32.07034        0.5707042        31.67667        0.5207664        166.7362
4.6462                 0.4782786         166.464        0.5624998        31.14802        0.5662711          30.696        0.5271798        165.4991
4.6476                 0.4859632        165.4162        0.5586442        30.23426        0.5617428        29.73259        0.5333501        164.2646
4.649                  0.4935627        164.3482         0.554765        29.32859        0.5571381        28.78698        0.5392763        163.0337
4.6504                 0.5010534        163.2606        0.5508651        28.43057        0.5524753         27.8596        0.5449586        161.8076
4.6518                 0.5084113        162.1541        0.5469467        27.53982        0.5477731        26.95064         0.550398        160.5873
4.6532                 0.5156122        161.0297        0.5430118          26.656        0.5430497        26.06017        0.5555973        159.3736
4.6546                  0.522632        159.8886        0.5390618        25.77883        0.5383229        25.18802        0.5605597        158.1673
4.656                  0.5294479        158.7322        0.5350981        24.90808        0.5336098        24.33385        0.5652896         156.969
4.6574                 0.5360378        157.5622        0.5311221        24.04357        0.5289264        23.49711        0.5697923        155.7794
4.6588                 0.5423814        156.3804        0.5271351        23.18517         0.524288        22.67705        0.5740734        154.5989
4.6602                 0.5484598        155.1887         0.523139        22.33277         0.519708        21.87273        0.5781395        153.4278
4.6616                 0.5542566         153.989        0.5191356        21.48628        0.5151987        21.08305        0.5819974        152.2665
4.663                  0.5597581        152.7836        0.5151269        20.64564        0.5107707        20.30669        0.5856542        151.1151
4.6644                 0.5649526        151.5745        0.5111157        19.81075        0.5064326        19.54223        0.5891171        149.9737
4.6658                 0.5698313         150.364        0.5071047        18.98152        0.5021912        18.78806        0.5923937        148.8423
4.6672                 0.5743888         149.154        0.5030969         18.1578        0.4980515        18.04251        0.5954913        147.7209
4.6686                 0.5786222        147.9467        0.4990954        17.33939        0.4940162        17.30379        0.5984168        146.6093
4.67                   0.5825318        146.7442        0.4951034        16.52607         0.490086        16.57005        0.6011773        145.5072
4.6714                 0.5861204        145.5484         0.491124         15.7175        0.4862596        15.83943        0.6037793        144.4145
4.6728                 0.5893942         144.361          0.48716        14.91332         0.482534        15.11007        0.6062286        143.3307
4.6742                 0.5923615        143.1837        0.4832139        14.11305        0.4789039        14.38014        0.6085308        142.2555
4.6756                 0.5950335         142.018        0.4792879        13.31616        0.4753625        13.64788        0.6106907        141.1885
4.677                  0.5974231        140.8652        0.4753831        12.52207        0.4719012        12.91161        0.6127126        140.1292
4.6784                 0.5995454        139.7264        0.4715003        11.73011        0.4685103        12.16981           0.6146        139.0773
4.6798                 0.6014171        138.6024        0.4676392        10.93959        0.4651784        11.42108        0.6163556        138.0322
4.6812                 0.6030557        137.4939        0.4637989        10.14978        0.4618935        10.66419        0.6179815        136.9935
4.6826                 0.6044797        136.4014        0.4599773        9.359956        0.4586427        9.898113        0.6194794        135.9609
4.684                  0.6057078        135.3249        0.4561715        8.569405        0.4554123        9.122028        0.6208497        134.9338
4.6854                  0.606759        134.2645        0.4523776        7.777445        0.4521887         8.33532        0.6220927        133.9119
4.6868                 0.6076513        133.2199        0.4485908        6.983464        0.4489578        7.537602        0.6232078        132.8949
4.6882                 0.6084024        132.1906        0.4448058        6.186932        0.4457062        6.728711        0.6241943        131.8825
4.6896                 0.6090284         131.176        0.4410165        5.387426        0.4424203        5.908711        0.6250508        130.8744
4.691                  0.6095442        130.1751        0.4372165         4.58465        0.4390875        5.077885        0.6257754        129.8704
4.6924                 0.6099626        129.1872         0.433399        3.778454         0.435696        4.236737        0.6263663        128.8704
4.6938                 0.6102949         128.211        0.4295571        2.968845        0.4322348         3.38597        0.6268215        127.8743
4.6952                 0.6105497        127.2455        0.4256843           2.156        0.4286943        2.526487        0.6271388        126.8822
4.6966                 0.6107336        126.2894        0.4217741        1.340268        0.4250658        1.659369        0.6273161         125.894
4.698                  0.6108513        125.3415        0.4178209       0.5221708        0.4213424       0.7858671        0.6273515        124.9099
4.6994                 0.6109047        124.4007        0.4138198      -0.2976001        0.4175186     -0.09262085        0.6272434        123.9301
4.7008                 0.6108943        123.4658        0.4097668       -1.118194        0.4135904      -0.9745621        0.6269905        122.9547
4.7022                 0.6108182        122.5359        0.4056591       -1.938614        0.4095554       -1.858311        0.6265919        121.9841
4.7036                 0.6106731        121.6099        0.4014951       -2.757741        0.4054129       -2.742128        0.6260475        121.0186
4.705                  0.6104544        120.6872        0.3972748        -3.57435        0.4011641       -3.624183        0.6253575        120.0585
4.7064                 0.6101564        119.7672        0.3929994       -4.387133        0.3968116       -4.502645        0.6245228        119.1043
4.7078                 0.6097726        118.8493        0.3886716       -5.194801        0.3923595       -5.375582        0.6235452        118.1563
4.7092                 0.6092961        117.9333        0.3842957       -5.995914        0.3878139       -6.241062        0.6224271        117.2151
4.7106                 0.6087202        117.0191        0.3798774       -6.789214         0.383182       -7.097256        0.6211717         116.281
4.712                  0.6080386        116.1066        0.3754237       -7.573416        0.3784726       -7.942255        0.6197832        115.3545
4.7134                 0.6072453        115.1963        0.3709426       -8.347363        0.3736958       -8.774286        0.6182663        114.4362
4.7148                 0.6063354        114.2884        0.3664432       -9.110032        0.3688628       -9.591648        0.6166268        113.5263
4.7162                 0.6053055        113.3832        0.3619354       -9.860575        0.3639857       -10.39277        0.6148708        112.6253
4.7176                 0.6041531        112.4815        0.3574297       -10.59835        0.3590777       -11.17621        0.6130056        111.7336
4.719                  0.6028774        111.5838        0.3529368       -11.32296        0.3541526       -11.94072        0.6110388        110.8514
4.7204                 0.6014795        110.6908        0.3484671       -12.03426        0.3492245       -12.68525        0.6089787        109.9791
4.7218                 0.5999618        109.8032        0.3440312       -12.73238        0.3443079       -13.40899        0.6068341        109.1168
4.7232                 0.5983283        108.9216        0.3396387       -13.41774        0.3394175       -14.11136        0.6046141        108.2646
4.7246                  0.596585        108.0466        0.3352985       -14.09105        0.3345676       -14.79211        0.6023282        107.4226
4.726                  0.5947388        107.1789        0.3310183        -14.7533        0.3297722       -15.45125        0.5999858        106.5907
4.7274                  0.592798        106.3187        0.3268042       -15.40571        0.3250446       -16.08914        0.5975966        105.7687
4.7288                  0.590772        105.4664         0.322661       -16.04978        0.3203973       -16.70646        0.5951699        104.9564
4.7302                 0.5886707        104.6223        0.3185919       -16.68715        0.3158418       -17.30424        0.5927151        104.1534
4.7316                 0.5865045        103.7862        0.3145977       -17.31963         0.311388       -17.88384        0.5902406        103.3594
4.733                  0.5842837        102.9582         0.310678       -17.94912        0.3070446       -18.44694         0.587755        102.5736
4.7344                 0.5820185        102.1378        0.3068302       -18.57752        0.3028184       -18.99556        0.5852657        101.7955
4.7358                 0.5797187        101.3246          0.30305       -19.20674        0.2987148       -19.53197        0.5827792        101.0244
4.7372                 0.5773929        100.5179        0.2993316       -19.83856        0.2947368       -20.05872        0.5803016        100.2593
4.7386                 0.5750488        99.71704        0.2956679       -20.47461        0.2908857       -20.57854        0.5778377        99.49949
4.74                   0.5726925        98.92101        0.2920505       -21.11632        0.2871607       -21.09434        0.5753911         98.7439
4.7414                 0.5703287         98.1289        0.2884702       -21.76484         0.283559       -21.60911        0.5729643         97.9915
4.7428                 0.5679603         97.3396        0.2849173       -22.42102        0.2800759       -22.12589        0.5705586        97.24131
4.7442                 0.5655884        96.55198         0.281382       -23.08538        0.2767048       -22.64771        0.5681742        96.49214
4.7456                  0.563212        95.76495        0.2778545       -23.75806        0.2734374       -23.17748        0.5658096        95.74303
4.747                  0.5608289        94.97739        0.2743255       -24.43887        0.2702638         -23.718        0.5634625        94.99284
4.7484                 0.5584346        94.18825        0.2707865        -25.1272        0.2671729       -24.27184        0.5611292        94.24052
4.7498                 0.5560234        93.39658        0.2672301       -25.82215        0.2641523       -24.84135        0.5588048        93.48503
4.7512                 0.5535884        92.60156        0.2636501       -26.52244         0.261189       -25.42853        0.5564835         92.7255
4.7526                 0.5511212        91.80247        0.2600421       -27.22654        0.2582691       -26.03509        0.5541584          91.961
4.754                  0.5486131        90.99878         0.256403       -27.93262        0.2553785       -26.66236        0.5518217        91.19075
4.7554                 0.5460546         90.1901         0.252732       -28.63871        0.2525031       -27.31126         0.549465        90.41402
4.7568                 0.5434363        89.37622        0.2490296       -29.34266        0.2496289       -27.98234        0.5470792        89.63026
4.7582                 0.5407489        88.55723        0.2452985       -30.04227        0.2467424       -28.67572         0.544655        88.83899
4.7596                 0.5379836        87.73316        0.2415431       -30.73532        0.2438306       -29.39115        0.5421824        88.03979
4.761                  0.5351325        86.90447        0.2377694       -31.41972        0.2408818       -30.12795        0.5396517        87.23254
4.7624                 0.5321888        86.07156         0.233985       -32.09345         0.237885       -30.88509         0.537053        86.41703
4.7638                  0.529147        85.23511        0.2301986       -32.75479        0.2348305       -31.66114        0.5343768        85.59335
4.7652                 0.5260029        84.39587        0.2264201       -33.40233        0.2317103       -32.45437        0.5316139        84.76165
4.7666                 0.5227543        83.55459        0.2226598       -34.03501        0.2285176       -33.26268        0.5287556         83.9222
4.768                  0.5194007        82.71218        0.2189287       -34.65225        0.2252474       -34.08374        0.5257937        83.07539
4.7694                  0.515943        81.86956        0.2152375       -35.25395        0.2218964        -34.9149        0.5227213         82.2217
4.7708                 0.5123841        81.02755        0.2115966       -35.84063        0.2184629       -35.75332        0.5195319        81.36178
4.7722                 0.5087284        80.18692        0.2080155       -36.41332        0.2149472       -36.59593        0.5162203        80.49636
4.7736                 0.5049819        79.34849        0.2045029       -36.97371        0.2113513       -37.43951        0.5127824        79.62613
4.775                  0.5011518         78.5128        0.2010655       -37.52403        0.2076787       -38.28071        0.5092151        78.75201
4.7764                 0.4972462        77.68033        0.1977088       -38.06709        0.2039349       -39.11608        0.5055168        77.87489
4.7778                  0.493274        76.85137        0.1944359       -38.60617         0.200127       -39.94216         0.501687        76.99576
4.7792                 0.4892445        76.02599         0.191248       -39.14495        0.1962634       -40.75544        0.4977264        76.11556
4.7806                 0.4851669        75.20415        0.1881438       -39.68747        0.1923542       -41.55254        0.4936373        75.23528
4.782                  0.4810504        74.38538          0.18512       -40.23791        0.1884107       -42.33015        0.4894228        74.35589
4.7834                 0.4769034        73.56926        0.1821709       -40.80053        0.1844452       -43.08517        0.4850874        73.47837
4.7848                 0.4727333        72.75492        0.1792889       -41.37951        0.1804712       -43.81476        0.4806369        72.60363
4.7862                 0.4685462        71.94142        0.1764645       -41.97882        0.1765027       -44.51643        0.4760778        71.73254
4.7876                 0.4643469        71.12759        0.1736869       -42.60214        0.1725544       -45.18814        0.4714176        70.86588
4.789                  0.4601383        70.31212        0.1709439       -43.25263        0.1686411       -45.82837        0.4666649         70.0043
4.7904                 0.4559212        69.49356        0.1682228         -43.933        0.1647776       -46.43625        0.4618284        69.14841
4.7918                 0.4516947        68.67039        0.1655104       -44.64529        0.1609786       -47.01164        0.4569177        68.29864
4.7932                 0.4474555        67.84108        0.1627938       -45.39093        0.1572579       -47.55526        0.4519426        67.45533
4.7946                 0.4431988        67.00401        0.1600603       -46.17064        0.1536286       -48.06874        0.4469132        66.61859
4.796                  0.4389175         66.1577        0.1572983       -46.98448        0.1501024       -48.55475        0.4418391        65.78842
4.7974                 0.4346029        65.30074        0.1544975       -47.83189        0.1466894       -49.01701        0.4367301        64.96459
4.7988                 0.4302449        64.43182        0.1516489       -48.71165        0.1433978       -49.46037        0.4315955        64.14673
4.8002                  0.425832        63.54983        0.1487454       -49.62205        0.1402339       -49.89077        0.4264436        63.33426
4.8016                  0.421352        62.65389        0.1457818       -50.56091        0.1372012       -50.31525        0.4212824        62.52636
4.803                  0.4167921         61.7433        0.1427553       -51.52566        0.1343009       -50.74184        0.4161185        61.72207
4.8044                 0.4121394        60.81764        0.1396647        -52.5135        0.1315312       -51.17943        0.4109575        60.92021
4.8058                 0.4073811        59.87675        0.1365112       -53.52152        0.1288877       -51.63769        0.4058034        60.11943
4.8072                 0.4025051        58.92073        0.1332983       -54.54677        0.1263632       -52.12682        0.4006593        59.31817
4.8086                 0.3975002        57.94993        0.1300309       -55.58648         0.123948       -52.65741        0.3955261        58.51478
4.81                   0.3923563        56.96496         0.126716       -56.63819        0.1216297       -53.24018        0.3904034        57.70741
4.8114                  0.387065        55.96666         0.123362        -57.6999         0.119394       -53.88588        0.3852889        56.89414
4.8128                 0.3816195        54.95607        0.1199783       -58.77032        0.1172246         -54.605        0.3801787        56.07296
4.8142                 0.3760148        53.93438        0.1165752       -59.84897        0.1151037       -55.40774         0.375067        55.24176
4.8156                 0.3702482        52.90296        0.1131636       -60.93649        0.1130127       -56.30387        0.3699463        54.39846
4.817                  0.3643189        51.86322        0.1097541       -62.03477        0.1109322       -57.30269        0.3648076        53.54096
4.8184                 0.3582279        50.81667        0.1063571       -63.14717        0.1088427       -58.41304        0.3596401        52.66717
4.8198                 0.3519785        49.76475        0.1029821       -64.27877         0.106725       -59.64335        0.3544318        51.77512
4.8212                 0.3455757        48.70892       0.09963744       -65.43651        0.1045606       -61.00185        0.3491695        50.86287
4.8226                  0.339026        47.65049       0.09632977       -66.62939        0.1023322       -62.49659        0.3438384        49.92868
4.824                  0.3323372        46.59063       0.09306388       -67.86867        0.1000238       -64.13582        0.3384233        48.97089
4.8254                 0.3255184        45.53029       0.08984243       -69.16789       0.09762134       -65.92813        0.3329082        47.98807
4.8268                 0.3185792        44.47016       0.08666583       -70.54312        0.0951129       -67.88292        0.3272766        46.97896
4.8282                 0.3115293        43.41063       0.08353231       -72.01297       0.09248904        -70.0107        0.3215116        45.94252
4.8296                 0.3043786        42.35175       0.08043804       -73.59875       0.08974304        -72.3236        0.3155964        44.87792
4.831                  0.2971362        41.29316        0.0773775       -75.32468        0.0868714       -74.83591        0.3095144        43.78463
4.8324                 0.2898105         40.2341       0.07434398       -77.21808       0.08387409       -77.56473        0.3032494         42.6623
4.8338                 0.2824085        39.17338       0.07133029       -79.30978       0.08075506        -80.5308         0.296786        41.51087
4.8352                 0.2749351        38.10937       0.06832968       -81.63469       0.07752273       -83.75935        0.2901091         40.3306
4.8366                 0.2673939        37.03998       0.06533698       -84.23262       0.07419083       -87.28124        0.2832053        39.12195
4.838                  0.2597855        35.96272       0.06234994       -87.14925       0.07077908       -91.13415        0.2760618        37.88576
4.8394                 0.2521083         34.8747       0.05937094       -90.43756        0.0673146       -95.36385        0.2686675        36.62311
4.8408                 0.2443582        33.77267       0.05640897       -94.15934       0.06383321       -100.0253        0.2610125        35.33546
4.8422                 0.2365282        32.65307       0.05348212       -98.38659       0.06038141       -105.1834        0.2530887         34.0246
4.8436                  0.228609        31.51211       0.05062047       -103.2024       0.05701861       -110.9118        0.2448896        32.69273
4.845                  0.2205887        30.34581       0.04786954       -108.6998       0.05381939       -117.2897        0.2364104         31.3425
4.8464                 0.2124532        29.15007       0.04529394       -114.9768       0.05087553       -124.3925        0.2276482        29.97706
4.8478                 0.2041868        27.92076       0.04298056       -122.1238        0.0482963       -132.2756        0.2186022        28.60021
4.8492                  0.195772        26.65374       0.04103964       -130.2001       0.04620522       -140.9487        0.2092732        27.21646
4.8506                 0.1871906        25.34496       0.03960088       -139.1975       0.04473096       -150.3444        0.1996644        25.83128
4.852                  0.1784238        23.99042       0.03880151       -148.9995       0.04399106       -160.2939        0.1897808         24.4513
4.8534                 0.1694529        22.58625       0.03876513       -159.3584       0.04407108         -170.53        0.1796297         23.0847
4.8548                 0.1602598        21.12865       0.03957623       -169.9192       0.04500643        179.2698        0.1692204        21.74168
4.8562                 0.1508275        19.61381       0.04126139        179.7031       0.04677578        169.4131        0.1585646        20.43523
4.8576                 0.1411408        18.03779       0.04378719        169.8302       0.04930922        160.1297        0.1476765        19.18221
4.859                  0.1311865        16.39626       0.04707442        160.6608       0.05250622         151.545        0.1365728        18.00499
4.8604                 0.1209542        14.68415       0.05101948        152.2681       0.05625464        143.6908        0.1252734        16.93405
4.8618                 0.1104364        12.89496       0.05551273        144.6325       0.06044471        136.5345         0.113802        16.01224
4.8632                0.09962897        11.01963       0.06044988        137.6828       0.06497665        130.0092        0.1021871        15.30188
4.8646                0.08853137        9.044509        0.0657368         131.328       0.06976339        124.0354        0.0904648        14.89739
4.866                 0.07714714        6.947278       0.07129041        125.4762       0.07473035        118.5345       0.07868259        14.94901
4.8674                0.06548401        4.688437       0.07703771        120.0444       0.07981409         113.435       0.06690888         15.7102
4.8688                 0.0535546        2.190738       0.08291402        114.9613       0.08496042        108.6748       0.05525333        17.63979
4.8702                0.04137788      -0.7188722       0.08886149        110.1676       0.09012272        104.2014       0.04391803        21.64041
4.8716                0.02898471       -4.519668        0.0948277        105.6149       0.09526057         99.9714       0.03334099        29.63925