! TOUCHSTONE file generated by CST MICROWAVE STUDIO
! Date and time: Thu Nov  7 16:58:51 2024
! Project name: CoaxToWaveguideAdapter.cst
! Parameters = {AirCoaxOuterDiameter=3; ConnectorLength=10; DrillingHoleDiameter=4.5; FeedLength=146.28; GratingDistance=48.76; GratingGap=3.9; GratingWireDiameter=1; Probe1Diameter=1.3; Probe1Distance=15.01; Probe1Length=12.22; Probe2Diameter=1.3; Probe2Distance=16.4; Probe2Length=12.22; SmaInnerDiameter=1.3; SmaOuterDiameter=4.5; WaveguideSide=50; WaveguideThickness=3; WireCount=13}
! Header version: 2018
! Port assignment regex: !\s*Touchstone port\s*([0-9]+)\s*=\s*(CST MWS port|CST DS port)\s*([0-9]+|Zmin|Zmax)\s*\(\"(.*)\"\)(\s*mode\s*([0-9]+))?.*
! Touchstone port assignment:
! Touchstone port 1 = CST MWS port 1 ("Input1")
! Touchstone port 2 = CST MWS port 2 ("Input2")
! S-Parameters are not renormalized. Unphysical impedance of 0 will be written to the file.
# GHz S MA R 0
4                      0.6906161        132.9585        0.1477079       -16.95788        0.1477076       -16.95763        0.6873998        119.6975
4.003                  0.6955017        132.2479        0.1457889       -20.94372        0.1457887       -20.94342        0.6818493        119.3637
4.006                  0.6935926        131.4899         0.142098       -24.34523        0.1420979       -24.34488        0.6745635        119.0336
4.009                   0.686975        131.1284        0.1382573       -26.81765        0.1382575       -26.81727        0.6659973        118.8418
4.012                  0.6811734        131.3334        0.1359909       -28.59075        0.1359913       -28.59039         0.657672        118.8524
4.015                  0.6813413        131.8561          0.13596       -30.39977        0.1359607       -30.39948        0.6511307        119.0094
4.018                  0.6884242        132.1903        0.1372708       -32.95643        0.1372716       -32.95626        0.6468496        119.1712
4.021                  0.6984293        131.9646        0.1381358       -36.43787        0.1381367       -36.43781        0.6439123        119.2126
4.024                   0.705456        131.2067        0.1370664       -40.44271        0.1370671       -40.44276        0.6407012        119.1146
4.027                  0.7058382        130.2863        0.1337245       -44.27271        0.1337251       -44.27283        0.6360748        118.9745
4.03                    0.700506        129.6583        0.1290994       -47.28788        0.1290997       -47.28805        0.6301782        118.9345
4.033                  0.6943587        129.5728        0.1249857       -49.27715        0.1249859       -49.27732         0.624346        119.0795
4.036                  0.6929607         129.887        0.1228885       -50.70125        0.1228886       -50.70142        0.6201615        119.3711
4.039                  0.6984919        130.1426        0.1229474       -52.45293        0.1229474        -52.4531        0.6183132        119.6693
4.042                  0.7080761        129.9144        0.1238249       -55.17831        0.1238247       -55.17848        0.6180886        119.8323
4.045                  0.7159706        129.1251        0.1236868       -58.84228        0.1236864       -58.84243         0.617898        119.8186
4.048                  0.7176661        128.0682        0.1213735       -62.84357        0.1213729       -62.84365        0.6164194        119.7122
4.051                  0.7128439        127.1933        0.1170271       -66.37329        0.1170263       -66.37325        0.6135183        119.6584
4.054                  0.7055583         126.823        0.1120237       -68.81473         0.112023       -68.81451        0.6103225          119.76
4.057                  0.7015678        126.9276         0.108226       -70.16521        0.1082254       -70.16479          0.60841        120.0011
4.06                   0.7042565        127.1182        0.1067634       -71.20375        0.1067632       -71.20321         0.608657        120.2539
4.063                   0.712077        126.9305         0.107164       -72.97495        0.1071642       -72.97443        0.6105818        120.3708
4.066                  0.7197292        126.1774        0.1077167       -75.96729        0.1077172       -75.96685        0.6126893        120.2919
4.069                  0.7220127        125.0599        0.1066979       -79.85309        0.1066985       -79.85279        0.6135406        120.0842
4.072                  0.7173142         124.007        0.1033981       -83.79312        0.1033987       -83.79293        0.6127509        119.8901
4.075                  0.7086287        123.4032       0.09847666       -86.86578        0.0984772       -86.86564        0.6112344        119.8274
4.078                  0.7016344        123.3341       0.09364116       -88.53991       0.09364163        -88.5398        0.6105447        119.9052
4.081                  0.7007831        123.4975       0.09066524       -89.16406       0.09066572       -89.16397        0.6117491        120.0152
4.084                  0.7059885         123.409        0.0901123       -89.93226       0.09011288       -89.93215        0.6146388        120.0099
4.087                   0.712685         122.773       0.09085819       -91.95217       0.09085887       -91.95214        0.6178729        119.8106
4.09                   0.7152037        121.6843       0.09097956       -95.39581       0.09098031       -95.39589        0.6199385        119.4619
4.093                  0.7106663        120.5362        0.0890598       -99.55706       0.08906049       -99.55728        0.6202072        119.0968
4.096                  0.7008397        119.7635        0.0849437       -103.3335       0.08494424       -103.3339        0.6193549        118.8438
4.099                  0.6910323        119.5652       0.07980614       -105.7124       0.07980649       -105.7128        0.6188804        118.7379
4.102                  0.6865384        119.7414        0.0755783       -106.3801       0.07557848       -106.3806        0.6200358        118.6942
4.105                  0.6887736        119.8094       0.07372687       -106.2637       0.07372695        -106.264         0.622915        118.5682
4.108                  0.6941742        119.3704       0.07406429       -107.0231       0.07406435       -107.0234        0.6263791        118.2621
4.111                  0.6968749        118.4016       0.07488603       -109.6117       0.07488607        -109.612        0.6288742        117.7937
4.114                  0.6928418        117.2447       0.07430521       -113.6888       0.07430519       -113.6892        0.6295242        117.2807
4.117                  0.6825175        116.3727       0.07140033       -118.1002       0.07140016       -118.1007        0.6287295        116.8591
4.12                   0.6705786        116.0935       0.06662624       -121.4537       0.06662585       -121.4543        0.6278866         116.589
4.123                  0.6628903         116.322       0.06162571       -122.6881       0.06162507       -122.6886        0.6284055         116.412
4.126                  0.6623116        116.5996       0.05838818       -121.9748       0.05838738        -121.975        0.6306966        116.1904
4.129                   0.666487        116.4338         0.057792       -121.1755        0.0577912       -121.1753        0.6338677        115.8084
4.132                  0.6696342        115.6741       0.05876822       -122.3265       0.05876755       -122.3261        0.6363653        115.2544
4.135                  0.6667333        114.5951        0.0592476        -125.839       0.05924711       -125.8385        0.6370721        114.6268
4.138                  0.6568894        113.6946       0.05767356       -130.6522       0.05767324       -130.6516        0.6360789        114.0647
4.141                  0.6439503        113.3827       0.05376374       -135.0792       0.05376357       -135.0786        0.6346229        113.6528
4.144                   0.634076        113.6961       0.04859827       -137.3439       0.04859825       -137.3432        0.6342283        113.3611
4.147                  0.6314268        114.2215       0.04421965       -136.4351       0.04421981       -136.4344        0.6356212        113.0638
4.15                   0.6349642        114.3849       0.04242534       -133.6928       0.04242568       -133.6921        0.6381986        112.6296
4.153                  0.6392288        113.9019       0.04311214        -132.471       0.04311262       -132.4705         0.640459        112.0166
4.156                   0.638403        112.9655       0.04431544        -134.645       0.04431599       -134.6447        0.6410665        111.3002
4.159                  0.6303031        112.0847       0.04398937       -139.4398        0.0439899       -139.4398        0.6397804        110.6189
4.162                   0.617827        111.7603       0.04121509       -144.8394       0.04121555       -144.8395         0.637625        110.0799
4.165                  0.6071839        112.1519        0.0364633       -148.3778       0.03646365       -148.3781        0.6361865        109.6839
4.168                  0.6036408        112.9089        0.0314885       -147.5506       0.03148872        -147.551        0.6364938         109.321
4.171                  0.6074944        113.3946        0.0286739       -142.0576       0.02867403        -142.058        0.6382676        108.8481
4.174                  0.6137829        113.1907       0.02902888       -136.7248       0.02902895       -136.7252        0.6401118        108.1931
4.177                  0.6160626        112.3967       0.03084118       -136.3724       0.03084123       -136.3727        0.6405044        107.4047
4.18                   0.6109288        111.5175       0.03162597        -140.627       0.03162597       -140.6273        0.6388622        106.6176
4.183                  0.6002539        111.1294       0.03000187       -146.6957       0.03000182        -146.696        0.6359516        105.9599
4.186                  0.5900929        111.5097       0.02601643       -151.2046       0.02601629       -151.2049        0.6333738        105.4646
4.189                  0.5866285        112.3889        0.0211319       -149.7855       0.02113171       -149.7855        0.6324443        105.0414
4.192                  0.5914863        113.0947       0.01813447       -139.1565       0.01813433        -139.156        0.6332354        104.5386
4.195                   0.600356        113.0848       0.01903375       -127.0777       0.01903379        -127.077        0.6345028        103.8527
4.198                  0.6063134        112.3543       0.02193021       -123.9727       0.02193041       -123.9723        0.6345639        103.0033
4.201                  0.6047692        111.3846       0.02380048       -128.0763       0.02380075       -128.0762        0.6324826        102.1182
4.204                  0.5964797        110.8096       0.02314419       -134.5138       0.02314446       -134.5139         0.628733        101.3469
4.207                  0.5871695        111.0193       0.01999609       -138.6569        0.0199963       -138.6572        0.6249022        100.7571
4.21                   0.5838098        111.8481       0.01594129       -134.2713       0.01594139       -134.2718        0.6225957        100.2813
4.213                  0.5894286        112.6242       0.01433447       -117.4009       0.01433448       -117.4013        0.6222694        99.75878
4.216                  0.6005788        112.6933       0.01711423        -103.417       0.01711425       -103.4172        0.6228551        99.05114
4.219                   0.609982        111.9291       0.02139788       -102.2588       0.02139794        -102.259        0.6224957        98.14423
4.222                  0.6118133        110.7661       0.02422309       -107.8848       0.02422317       -107.8851        0.6198555        97.15997
4.225                  0.6055497        109.8802       0.02437958       -114.7982       0.02437965       -114.7985        0.6150858        96.27524
4.228                   0.596429        109.7769       0.02208427        -118.709       0.02208431       -118.7094        0.6097954        95.60087
4.231                   0.592214        110.4202       0.01905416       -114.8858       0.01905415       -114.8862        0.6059884        95.09403
4.234                  0.5975776        111.1664       0.01836748       -102.4776       0.01836746       -102.4779        0.6046094        94.57215
4.237                  0.6102016        111.2412       0.02153402       -92.53999       0.02153403       -92.54025        0.6047333        93.83705
4.24                   0.6223999        110.3612       0.02632256       -91.51616       0.02632259       -91.51648        0.6040699        92.82116
4.243                  0.6266754        108.8893       0.03017423       -95.70995       0.03017424       -95.71038        0.6004557        91.64478
4.246                  0.6206373        107.5564       0.03199645       -100.9094        0.0319964       -100.9099        0.5933182        90.55348
4.249                  0.6086825        107.0478       0.03214899       -104.2224       0.03214884       -104.2228        0.5842135        89.77891
4.252                   0.599749        107.5673       0.03217431       -104.3581       0.03217408       -104.3584        0.5760742        89.38994
4.255                  0.6015326        108.5749       0.03380931       -102.9545       0.03380904       -102.9546        0.5714798        89.22176
4.258                  0.6145605        109.1098       0.03730403       -103.5967        0.0373038       -103.5967         0.570981        88.95904
4.261                  0.6316356        108.5608       0.04108705       -107.9065       0.04108686       -107.9065        0.5727126        88.33938
4.264                  0.6432687        107.0669       0.04314858       -114.8402       0.04314843       -114.8403        0.5736173        87.31597
4.267                  0.6439387        105.3037       0.04222773       -122.2444       0.04222757       -122.2445        0.5713384        86.06397
4.27                   0.6352183        104.0521       0.03839784       -127.3428       0.03839764       -127.3428        0.5655144         84.8574
4.273                  0.6248283        103.7631       0.03354057       -126.6042       0.03354033       -126.6042        0.5578081        83.90667
4.276                  0.6217855        104.2123       0.03143662       -118.5128       0.03143642       -118.5125        0.5507295        83.23608
4.279                  0.6298053        104.5759       0.03487552       -110.2956       0.03487547       -110.2952        0.5459521        82.67456
4.282                  0.6442572        104.0816       0.04174224       -109.5868       0.04174233       -109.5865        0.5432293        81.98353
4.285                  0.6558124        102.6081       0.04795856       -115.1601       0.04795873         -115.16        0.5407074        81.03411
4.288                  0.6571681        100.6845       0.05080051       -123.4057       0.05080068       -123.4057         0.536357        79.89352
4.291                  0.6477399        99.11272       0.04937425       -131.2214       0.04937438       -131.2216         0.529431        78.76927
4.294                  0.6342632        98.50959       0.04473293       -135.4786       0.04473297       -135.4789        0.5209807        77.86324
4.297                  0.6269009        98.85834       0.04017532       -133.1513       0.04017526       -133.1515        0.5131292        77.22658
4.3                    0.6320311        99.37688       0.04026122       -125.7311       0.04026113       -125.7312        0.5075533        76.70902
4.303                  0.6468648        99.08635       0.04617302       -121.5493       0.04617298       -121.5493        0.5042142        76.05826
4.306                  0.6614045        97.61093       0.05409095        -124.385       0.05409098        -124.385        0.5013377          75.109
4.309                   0.665739        95.37415       0.05973949       -131.7812       0.05973956       -131.7813        0.4966837        73.90716
4.312                  0.6564382        93.25523       0.06074114       -140.5139       0.06074119       -140.5141         0.489139        72.68112
4.315                  0.6388921        92.11309        0.0569117       -147.5816       0.05691166       -147.5819        0.4795404        71.69314
4.318                  0.6247882        92.25078       0.05057769       -149.6427       0.05057749        -149.643        0.4702003        71.05816
4.321                  0.6245794         93.0059       0.04677193        -144.589       0.04677162       -144.5891        0.4633438        70.63758
4.324                  0.6389447        93.11029       0.05022107       -137.5825       0.05022078       -137.5824        0.4594442        70.11226
4.327                  0.6576237        91.75792       0.05937938       -136.8295       0.05937923       -136.8293        0.4567557        69.21441
4.33                   0.6671004        89.16359       0.06860818       -142.6833       0.06860815       -142.6831        0.4525004        67.93105
4.333                  0.6594819        86.27718       0.07346587       -151.8623       0.07346593       -151.8622        0.4448068        66.52127
4.336                  0.6373014         84.2696       0.07199603       -161.2513       0.07199612       -161.2513        0.4340597        65.35834
4.339                  0.6132725        83.94948       0.06498709       -167.6062       0.06498713       -167.6063        0.4228334        64.68906
4.342                  0.6036394        85.00625       0.05674574       -166.9979       0.05674565       -166.9981        0.4143012        64.42517
4.345                  0.6158098        85.82726       0.05505498       -158.9014       0.05505477       -158.9014        0.4099252        64.13964
4.348                  0.6407828        84.80987       0.06418219       -153.0762       0.06418196       -153.0761        0.4081384        63.35788
4.351                   0.659864         81.6953       0.07864115       -156.0961         0.078641        -156.096        0.4052689        61.92185
4.354                  0.6574635        77.45405       0.09074954       -165.3251       0.09074945        -165.325        0.3980238        60.11431
4.357                  0.6296969        73.65273       0.09553127       -177.0768       0.09553122       -177.0767        0.3857569        58.50569
4.36                   0.5879198         71.9608       0.09102945        171.7406       0.09102941        171.7407        0.3712601        57.63785
4.363                  0.5566852        73.18204       0.07894943        165.0598       0.07894934        165.0598        0.3594821        57.61812
4.366                  0.5596401        75.57499       0.06728534        168.8056       0.06728521        168.8056        0.3542488        57.84292
4.369                  0.5964291         75.4716       0.07159808       -178.6828         0.071598       -178.6827        0.3548638        57.28428
4.372                  0.6400829        70.88778       0.09703968        -175.312       0.09703971       -175.3118        0.3557528        55.25402
4.375                  0.6577127        62.27462        0.1319704        175.6368        0.1319705        175.6369        0.3495912        51.86544
4.378                  0.6255635        50.85944        0.1660367        159.6714        0.1660369        159.6715        0.3311173        47.96176
4.381                  0.5329748        37.78773        0.1930442        139.9888        0.1930445        139.9889        0.2997194        44.96784
4.384                  0.3820447        24.23146         0.209454        117.9707        0.2094544        117.9707        0.2609934        44.88943
4.387                   0.186249        13.36503        0.2138684        94.18173        0.2138688        94.18173        0.2275637        49.83498
4.39                  0.04849549        130.2564        0.2068415        68.79163        0.2068419        68.79163        0.2156639        59.25118
4.393                  0.2622675        145.5535        0.1906043        41.75205        0.1906047        41.75202        0.2313097        67.55923
4.396                   0.459076        132.4807        0.1685739        12.91198        0.1685742        12.91195        0.2625139        70.42051
4.399                  0.6106573        118.0738        0.1445971       -17.81095        0.1445974       -17.81097        0.2928528        68.50343
4.402                  0.7032242        104.0758        0.1219321        -50.1231        0.1219324        -50.1231        0.3119445        64.01626
4.405                  0.7333108        91.35849         0.102173        -83.0044        0.1021732       -83.00437          0.31625        58.80804
4.408                  0.7089773        80.84568       0.08479073       -114.6813       0.08479092       -114.6812        0.3076471        54.24573
4.411                  0.6499883        73.67638       0.06799873       -142.9632       0.06799886       -142.9632        0.2918385        51.27167
4.414                  0.5857974        70.85585       0.05060295       -164.8766       0.05060303       -164.8764         0.276136         50.1991
4.417                  0.5469688        71.90769       0.03418215       -173.6464       0.03418223       -173.6462        0.2662352        50.41401
4.42                   0.5467117        73.80996       0.02670156       -158.3279       0.02670168       -158.3278        0.2632674        50.63732
4.423                  0.5705999         73.4467       0.03509889       -144.6657         0.035099       -144.6658        0.2638753        49.88216
4.426                  0.5928547        70.34351       0.04873845       -150.6145       0.04873853       -150.6145        0.2634192        48.06165
4.429                  0.5960537        65.81839       0.05935704       -164.1656       0.05935711       -164.1656        0.2591192        45.75971
4.432                  0.5770704        61.52545       0.06403124       -179.2497       0.06403128       -179.2497        0.2511708        43.72214
4.435                  0.5450887         58.8248       0.06231896        167.0281       0.06231898        167.0281        0.2420632        42.43723
4.438                  0.5160189        58.26055       0.05578555         157.242       0.05578556        157.2421        0.2348035         41.8575
4.441                  0.5031148        58.98356        0.0481936         154.399       0.04819364         154.399        0.2309278        41.41781
4.444                  0.5075389        59.18204       0.04502273        158.9329       0.04502279         158.933        0.2296095        40.46168
4.447                  0.5185075         57.6736       0.04917132        163.3796       0.04917139        163.3796        0.2285587        38.72382
4.45                   0.5229653        54.64715       0.05725415        161.2867       0.05725419        161.2867        0.2257739        36.42979
4.453                   0.513985        51.11393       0.06430934        153.9772       0.06430933        153.9772        0.2207363        34.05708
4.456                  0.4932725        48.21778       0.06750996        144.6421       0.06750991        144.6421        0.2145053        32.01594
4.459                  0.4692885         46.7218       0.06634543        135.8865       0.06634535        135.8865         0.208891        30.39624
4.462                  0.4521375        46.51994       0.06230871        129.8585       0.06230865        129.8586        0.2052183        28.89749
4.465                  0.4467794        46.54355        0.0585012        127.8734       0.05850121        127.8736        0.2034681        27.03777
4.468                  0.4495492        45.57886       0.05825089        128.6948       0.05825099         128.695        0.2024271        24.50237
4.471                  0.4517029        43.23287       0.06247232        128.4496       0.06247248        128.4497        0.2006454        21.32511
4.474                  0.4459599        40.01176       0.06894149        124.6739       0.06894169         124.674        0.1973822        17.80042
4.477                  0.4304732        36.83373       0.07468669        117.9091        0.0746869        117.9092        0.1929536           14.26
4.48                   0.4091132        34.53864       0.07793174        109.8393       0.07793195        109.8393        0.1883967        10.85675
4.483                  0.3888789        33.44564       0.07855788        102.0518       0.07855809        102.0518        0.1846984        7.458622
4.486                  0.3753496        33.05711       0.07790077        95.59956       0.07790101        95.59957        0.1820629        3.737029
4.489                  0.3686739        32.35606        0.0780643        90.54657       0.07806457        90.54657        0.1797203      -0.5831683
4.492                  0.3637226        30.65758       0.08065088        85.70013        0.0806512        85.70007        0.1764018       -5.499608
4.495                  0.3543139        28.12607       0.08558759        79.39793        0.0855879        79.39783        0.1711123       -10.67647
4.498                  0.3375343        25.61229       0.09122582        70.78446        0.0912261        70.78432        0.1637532       -15.53107
4.501                  0.3156328        24.21263       0.09547212        60.07373       0.09547235        60.07357        0.1553871       -19.40022
4.504                  0.2952585        24.68591       0.09675802        48.03533       0.09675817        48.03516        0.1480893       -21.80363
4.507                  0.2838985        26.68972       0.09444841        35.59047       0.09444851        35.59031        0.1443034       -22.80509
4.51                   0.2844599        28.61606       0.08889323        23.68413       0.08889327        23.68398        0.1457608       -23.19344
4.513                   0.292829        28.88514       0.08130571        13.24693       0.08130573        13.24682        0.1526118       -24.06489
4.516                  0.3015555        27.18943       0.07349647          5.0295       0.07349649        5.029427        0.1636151       -26.09723
4.519                  0.3050887        24.27486       0.06735721      -0.8608112       0.06735727      -0.8608628        0.1771555       -29.30963
4.522                  0.3022004        21.18304       0.06402851       -5.437615       0.06402861       -5.437678        0.1921124       -33.34947
4.525                   0.295662        18.71099       0.06323423       -10.36406       0.06323434       -10.36416        0.2081272       -37.83254
4.528                  0.2901478        17.04447       0.06360742       -16.62128       0.06360752       -16.62143        0.2254115       -42.51307
4.531                  0.2891415         15.6372       0.06374913       -23.96451       0.06374918       -23.96467        0.2443625       -47.30081
4.534                  0.2925982        13.62045       0.06301366       -31.41834       0.06301366        -31.4185        0.2652245       -52.19441
4.537                  0.2973173        10.49544       0.06172109       -37.92381       0.06172104       -37.92392        0.2879602       -57.19986
4.54                   0.2995165        6.421397       0.06095164       -42.90946       0.06095159       -42.90951        0.3123566       -62.28579
4.543                  0.2972689        1.997714       0.06194791       -46.78836       0.06194789       -46.78835        0.3382494       -67.38922
4.546                  0.2914681         -2.1052       0.06527811       -50.82549       0.06527817       -50.82546         0.365696       -72.45098
4.549                  0.2852643       -5.493504        0.0704249       -56.12259       0.07042502       -56.12259        0.3949827       -77.44952
4.552                  0.2822748       -8.312196       0.07621665       -62.85641       0.07621682       -62.85644        0.4264602       -82.41113
4.555                  0.2843548       -11.20644       0.08158169       -70.46633       0.08158183       -70.46641        0.4603138       -87.39253
4.558                  0.2904763       -14.86395       0.08604938       -78.17361       0.08604949       -78.17372        0.4964102       -92.44928
4.561                  0.2976778       -19.53048       0.08989492       -85.36196       0.08989499       -85.36207        0.5343127       -97.61082
4.564                  0.3031297       -24.93173       0.09395982       -91.81775       0.09395984       -91.81783         0.573435       -102.8749
4.567                  0.3057436       -30.51569        0.0991741       -97.81944       0.09917411       -97.81949        0.6132231       -108.2201
4.57                   0.3066625       -35.75645        0.1059733       -103.9532        0.1059733       -103.9532        0.6532444       -113.6243
4.573                  0.3086472        -40.4155        0.1140035       -110.7168        0.1140037       -110.7168        0.6931381       -119.0771
4.576                  0.3145871       -44.68339        0.1223326       -118.2435        0.1223327       -118.2435         0.732469       -124.5806
4.579                  0.3258188        -49.0603        0.1299558       -126.3209        0.1299561        -126.321        0.7706002       -130.1388
4.582                  0.3413875       -53.99488        0.1362523       -134.5759        0.1362526        -134.576         0.806678       -135.7453
4.585                  0.3588174       -59.58827        0.1411965        -142.662        0.1411968       -142.6621        0.8397642       -141.3754