! TOUCHSTONE file generated by CST MICROWAVE STUDIO
! Date and time: Sun Dec 29 03:46:56 2024
! Project name: dual_feed.cst
! Parameters = {airCoaxOuterDiameter=3; connectorLength=10; drillingHoleDiameter=4.1; feedLength=160; gratingDistance=60.8133; gratingGap=5.2; probe1Diameter=1.3; probe1Distance=15.62; probe1Length=12.32; probe2Diameter=1.3; probe2Distance=15.62; probe2Length=12.32; smaInnerDiameter=1.3; smaOuterDiameter=4.1; waveguideSide=50; waveguideThickness=3; wireCount=9; wireDiameter=2}
! Header version: 2024
! Port assignment regex: !\s*Touchstone port\s*([0-9]+)\s*=\s*(CST MWS port|CST DES external port|CST DES block port)\s*(.+)\s* \(\"(.*)\"\)(\s*mode\s*([0-9]+))?.*
! Touchstone port assignment:
! Touchstone port 1 = CST MWS port 1 ("Input1")
! Touchstone port 2 = CST MWS port 2 ("Input2")
# GHz S MA R 50
4.7                    0.8001137        140.2693      0.009478639       -68.40919      0.009308872       -72.41742       0.06730371        165.0144
4.701                  0.7929413        139.0412      0.009373959       -69.68185      0.009162726       -73.57161       0.06847532        165.3021
4.702                  0.7855972        137.8294      0.009267766       -70.94261      0.009018118       -74.69718        0.0695921        165.4758
4.703                  0.7780896        136.6341      0.009160162       -72.19112      0.008875164       -75.79482       0.07058839        165.5993
4.704                  0.7704269        135.4559      0.009051234        -73.4271      0.008733956       -76.86511       0.07146694        165.7518
4.705                  0.7626178        134.2952      0.008941057       -74.65016      0.008594592        -77.9084       0.07229649        165.9855
4.706                  0.7546709        133.1525      0.008829711       -75.85983      0.008457186       -78.92504       0.07317287        166.2977
4.707                  0.7465953         132.028      0.008717281       -77.05552      0.008321864       -79.91548       0.07416487        166.6341
4.708                  0.7384002        130.9224      0.008603872       -78.23665      0.008188742       -80.88044       0.07527524        166.9208
4.709                  0.7300951        129.8361      0.008489599       -79.40267      0.008057903       -81.82086       0.07643979        167.1074
4.71                   0.7216894        128.7695      0.008374579       -80.55306      0.007929383       -82.73771        0.0775645        167.1938
4.711                   0.713193        127.7232      0.008258925       -81.68747      0.007803173       -83.63188       0.07857842        167.2282
4.712                  0.7046156        126.6976      0.008142737       -82.80545      0.007679249       -84.50398       0.07947226        167.2786
4.713                  0.6959674        125.6932      0.008026103       -83.90654       0.00755759       -85.35438       0.08030266         167.396
4.714                  0.6872585        124.7105      0.007909111       -84.99027      0.007438204       -86.18328       0.08116026        167.5871
4.715                  0.6784994          123.75      0.007791859       -86.05589      0.007321125       -86.99111       0.08211876        167.8118
4.716                  0.6697003        122.8123      0.007674451       -87.10282      0.007206393       -87.77833       0.08319332        168.0069
4.717                  0.6608717        121.8978      0.007557005       -88.13037      0.007094031       -88.54581       0.08433252        168.1226
4.718                  0.6520242        121.0071      0.007439644       -89.13798      0.006984025       -89.29447       0.08544809        168.1499
4.719                  0.6431684        120.1405      0.007322483       -90.12515      0.006876318       -90.02518       0.08646453        168.1236
4.72                    0.634315        119.2987       0.00720563       -91.09144      0.006770839       -90.73854        0.0873606        168.1021
4.721                  0.6254746         118.482      0.007089178       -92.03639       0.00666752       -91.43482       0.08818016        168.1345
4.722                  0.6166578         117.691      0.006973222       -92.95937      0.006566323       -92.11409       0.08900752        168.2353
4.723                  0.6078754         116.926      0.006857854       -93.85977      0.006467241       -92.77645       0.08992024        168.3764
4.724                  0.5991377        116.1876      0.006743181       -94.73693      0.006370288       -93.42234        0.0909456        168.5042
4.725                  0.5904555         115.476      0.006629314        -95.5902      0.006275471       -94.05229       0.09204561        168.5704
4.726                  0.5818391        114.7916      0.006516369         -96.419      0.006182766       -94.66719       0.09313906        168.5585
4.727                  0.5732987        114.1348       0.00640446       -97.22287      0.006092112       -95.26794       0.09414736        168.4923
4.728                  0.5648446        113.5059      0.006293688       -98.00142      0.006003426       -95.85502       0.09503774        168.4207
4.729                  0.5564867        112.9052      0.006184146       -98.75431      0.005916625       -96.42865       0.09584081        168.3912
4.73                   0.5482345        112.3327      0.006075919       -99.48102      0.005831653       -96.98887       0.09663314        168.4237
4.731                  0.5400977        111.7886      0.005969092       -100.1811      0.005748491       -97.53552       0.09749456        168.5008
4.732                  0.5320856        111.2731      0.005863757       -100.8541      0.005667143       -98.06878       0.09846353        168.5775
4.733                  0.5242069        110.7861       0.00576001       -101.4995      0.005587619       -98.58912       0.09951576        168.6077
4.734                  0.5164703        110.3277      0.005657951        -102.117        0.0055099        -99.0973        0.1005784        168.5694
4.735                  0.5088841        109.8976      0.005557673       -102.7065      0.005433935       -99.59413        0.1015713        168.4764
4.736                  0.5014558        109.4956      0.005459263       -103.2677      0.005359647       -100.0803        0.1024511        168.3694
4.737                  0.4941931        109.1216      0.005362793       -103.8008       0.00528695       -100.5558        0.1032349        168.2932
4.738                  0.4871025         108.775      0.005268329       -104.3056      0.005215783       -101.0208          0.10399        168.2723
4.739                  0.4801907        108.4554      0.005175932       -104.7823      0.005146118       -101.4748        0.1047968         168.298
4.74                   0.4734633        108.1623      0.005085664       -105.2307      0.005077959       -101.9179        0.1057036        168.3339
4.741                  0.4669256        107.8949      0.004997591        -105.651      0.005011318       -102.3505        0.1066998        168.3363
4.742                  0.4605823        107.6526      0.004911778       -106.0434       0.00494619       -102.7732        0.1077224        168.2795
4.743                  0.4544373        107.4345      0.004828282       -106.4084      0.004882538       -103.1867        0.1086915        168.1689
4.744                  0.4484939        107.2395      0.004747154       -106.7465       0.00482029       -103.5918        0.1095545        168.0372
4.745                  0.4427548        107.0668      0.004668431       -107.0584       0.00475937       -103.9887        0.1103152        167.9261
4.746                  0.4372221         106.915      0.004592135       -107.3448      0.004699711       -104.3773        0.1110306        167.8634
4.747                  0.4318967        106.7831      0.004518289       -107.6067      0.004641281       -104.7572        0.1117796         167.848
4.748                  0.4267794        106.6697      0.004446904       -107.8447      0.004584085       -105.1281        0.1126192        167.8512
4.749                  0.4218698        106.5734      0.004377998       -108.0598      0.004528136       -105.4904        0.1135523        167.8329
4.75                    0.417167        106.4928      0.004311581        -108.253      0.004473443       -105.8445        0.1145268        167.7643
4.751                  0.4126693        106.4265       0.00424766       -108.4257      0.004419981       -106.1913         0.115465        167.6437
4.752                  0.4083744        106.3729       0.00418623       -108.5792      0.004367693       -106.5314         0.116307        167.4965
4.753                  0.4042791        106.3304      0.004127272        -108.715      0.004316506       -106.8652        0.1170434        167.3606
4.754                  0.4003797        106.2974      0.004070759       -108.8346      0.004266354       -107.1926        0.1177201        167.2658
4.755                  0.3966717        106.2725      0.004016651       -108.9397      0.004217205       -107.5131        0.1184126        167.2175
4.756                  0.3931502        106.2539      0.003964905       -109.0317      0.004169056       -107.8264        0.1191847        167.1944
4.757                  0.3898096        106.2403      0.003915478       -109.1121      0.004121929       -108.1325         0.120052          167.16
4.758                  0.3866438        106.2299      0.003868321       -109.1826      0.004075839       -108.4318        0.1209743        167.0839
4.759                  0.3836461        106.2214      0.003823384        -109.245      0.004030775       -108.7252        0.1218781        166.9583
4.76                   0.3808096        106.2134      0.003780607       -109.3008      0.003986693       -109.0135        0.1226975        166.8014
4.761                  0.3781268        106.2044      0.003739919        -109.352      0.003943527        -109.297        0.1234107        166.6473
4.762                  0.3755901        106.1932      0.003701243       -109.4003      0.003901213       -109.5756        0.1240515        166.5267
4.763                  0.3731916        106.1786       0.00366449       -109.4472      0.003859713        -109.849        0.1246904        166.4507
4.764                  0.3709228        106.1594      0.003629574       -109.4944      0.003819023       -110.1165        0.1253955        166.4045
4.765                  0.3687755        106.1346      0.003596406       -109.5432      0.003779164       -110.3783        0.1261947         166.356
4.766                  0.3667412        106.1034      0.003564899       -109.5949      0.003740157       -110.6344        0.1270601        166.2741
4.767                  0.3648116        106.0648      0.003534967       -109.6509      0.003702005       -110.8858         0.127924        166.1459
4.768                   0.362978        106.0181       0.00350652       -109.7124      0.003664674       -111.1331        0.1287167        165.9831
4.769                  0.3612319        105.9628      0.003479464       -109.7808      0.003628106       -111.3771        0.1294048        165.8156
4.77                   0.3595652        105.8982      0.003453699        -109.857      0.003592239       -111.6175        0.1300097        165.6743
4.771                  0.3579696         105.824      0.003429124       -109.9422      0.003557031       -111.8541        0.1305952        165.5747
4.772                  0.3564369        105.7399      0.003405639       -110.0369      0.003522474       -112.0861        0.1312321        165.5084
4.773                  0.3549595        105.6455      0.003383146       -110.1419      0.003488586       -112.3133        0.1319593        165.4479
4.774                  0.3535299        105.5408      0.003361556       -110.2577      0.003455396        -112.536        0.1327616        165.3622
4.775                  0.3521405        105.4256      0.003340783       -110.3846      0.003422913       -112.7548         0.133579        165.2343
4.776                  0.3507846        105.3001      0.003320743       -110.5231      0.003391117       -112.9705          0.13434        165.0699
4.777                  0.3494554        105.1643      0.003301352       -110.6734      0.003359958       -113.1838        0.1350012        164.8942
4.778                  0.3481466        105.0183      0.003282524        -110.836      0.003329376       -113.3948        0.1355711        164.7376
4.779                  0.3468523        104.8624      0.003264176       -111.0107      0.003299327        -113.603        0.1361054        164.6191
4.78                   0.3455668        104.6969      0.003246226       -111.1976      0.003269797       -113.8078        0.1366758        164.5361
4.781                  0.3442849        104.5222      0.003228599       -111.3964      0.003240802       -114.0087        0.1373306        164.4658
4.782                  0.3430018        104.3386      0.003211227       -111.6069      0.003212373       -114.2057        0.1380676        164.3783
4.783                   0.341713        104.1465      0.003194052       -111.8287       0.00318453       -114.3995        0.1388356         164.253
4.784                  0.3404144        103.9465      0.003177018       -112.0614      0.003157261       -114.5909        0.1395633        164.0902
4.785                  0.3391022         103.739      0.003160073       -112.3047      0.003130527       -114.7807        0.1401985        163.9102
4.786                  0.3377733        103.5246      0.003143161       -112.5583      0.003104272        -114.969        0.1407372        163.7422
4.787                  0.3364245        103.3038      0.003126232       -112.8216      0.003078449       -115.1555        0.1412253         163.608
4.788                  0.3350535        103.0772      0.003109237        -113.094      0.003053038       -115.3394        0.1417333        163.5101
4.789                  0.3336579        102.8455      0.003092135       -113.3749      0.003028055       -115.5202        0.1423172        163.4306
4.79                   0.3322359        102.6091      0.003074891       -113.6635      0.003003529       -115.6977        0.1429875        163.3413
4.791                  0.3307859        102.3688      0.003057478       -113.9591      0.002979488       -115.8724        0.1437033        163.2191
4.792                  0.3293067        102.1252      0.003039874       -114.2609       0.00295593       -116.0452         0.144395        163.0593
4.793                  0.3277977        101.8789       0.00302206       -114.5683      0.002932825        -116.217        0.1450035        162.8774
4.794                  0.3262579        101.6304      0.003004016       -114.8806      0.002910119       -116.3879        0.1455123        162.7007
4.795                  0.3246874        101.3805      0.002985723       -115.1971      0.002887766       -116.5578        0.1459566        162.5528
4.796                  0.3230861        101.1298      0.002967165        -115.517       0.00286574       -116.7259         0.146404        162.4413
4.797                  0.3214543        100.8788      0.002948331       -115.8395      0.002844052       -116.8915        0.1469166        162.3531
4.798                  0.3197924        100.6282      0.002929214       -116.1636      0.002822731       -117.0542         0.147517        162.2622
4.799                  0.3181014        100.3786      0.002909817       -116.4886      0.002801808       -117.2144        0.1481755        162.1438
4.8                    0.3163822        100.1304      0.002890146       -116.8136      0.002781294        -117.373        0.1488267        161.9888
4.801                  0.3146359        99.88433       0.00287021       -117.1378      0.002761164       -117.5309        0.1494059        161.8079
4.802                  0.3128641        99.64086      0.002850015       -117.4606      0.002741374       -117.6885        0.1498852        161.6257
4.803                  0.3110683        99.40052      0.002829568       -117.7813      0.002721872       -117.8456        0.1502884        161.4673
4.804                  0.3092503        99.16376      0.002808877       -118.0992      0.002702632       -118.0015        0.1506779        161.3444
4.805                  0.3074119        98.93108      0.002787954       -118.4133      0.002683656       -118.1553        0.1511206        161.2487
4.806                  0.3055551        98.70295      0.002766814        -118.723      0.002664973       -118.3066        0.1516505        161.1569
4.807                  0.3036822        98.47974      0.002745478       -119.0273       0.00264662       -118.4556        0.1522496        161.0435
4.808                  0.3017954        98.26182      0.002723973       -119.3256      0.002628612        -118.603        0.1528584        160.8951
4.809                  0.2998969        98.04961      0.002702325       -119.6174      0.002610936       -118.7499        0.1534088        160.7176
4.81                   0.2979893         97.8434      0.002680556       -119.9019      0.002593552       -118.8968        0.1538617        160.5328
4.811                  0.2960748        97.64342      0.002658694       -120.1787       0.00257641       -119.0436         0.154229        160.3662
4.812                  0.2941561        97.45005      0.002636758       -120.4472      0.002559479       -119.1898        0.1545665        160.2331
4.813                  0.2922357        97.26338      0.002614774       -120.7068      0.002542755       -119.3342        0.1549434        160.1302
4.814                  0.2903159        97.08372      0.002592769       -120.9569      0.002526264       -119.4764        0.1554041        160.0372
4.815                  0.2883995        96.91109      0.002570775        -121.197      0.002510045       -119.6163        0.1559429        159.9284
4.816                  0.2864887        96.74572      0.002548825       -121.4266      0.002494122       -119.7547        0.1565078         159.787
4.817                  0.2845862        96.58761      0.002526954       -121.6454       0.00247849       -119.8926        0.1570287         159.614
4.818                  0.2826943        96.43678      0.002505196        -121.853      0.002463114       -120.0307        0.1574569         159.428
4.819                  0.2808153        96.29326      0.002483578       -122.0492      0.002447946       -120.1691        0.1577916        159.2545
4.82                   0.2789514        96.15699      0.002462129        -122.234       0.00243295       -120.3072        0.1580804        159.1119
4.821                   0.277105        96.02792      0.002440876        -122.407      0.002418116        -120.444        0.1583933        159.0016
4.822                  0.2752779        95.90592      0.002419848        -122.568      0.002403466       -120.5787        0.1587837        158.9068
4.823                  0.2734722        95.79081      0.002399075       -122.7169      0.002389039       -120.7113        0.1592588        158.8022
4.824                  0.2716897        95.68238      0.002378591       -122.8535      0.002374866       -120.8422        0.1597753        158.6682
4.825                  0.2699321        95.58045      0.002358426       -122.9781      0.002360951       -120.9725        0.1602636        158.5013
4.826                   0.268201        95.48473      0.002338612       -123.0907      0.002347264       -121.1031        0.1606662        158.3164
4.827                  0.2664978        95.39492      0.002319172       -123.1916      0.002333761       -121.2344        0.1609699        158.1381
4.828                  0.2648237        95.31068      0.002300129        -123.281        0.0023204       -121.3657        0.1612128        157.9876
4.829                  0.2631798         95.2317      0.002281503       -123.3593      0.002307165       -121.4961        0.1614637        157.8707
4.83                   0.2615671        95.15759      0.002263312       -123.4268      0.002294073       -121.6246         0.161784        157.7745
4.831                  0.2599864        95.08791      0.002245578       -123.4837      0.002281164       -121.7509        0.1621936        157.6748
4.832                  0.2584381        95.02228      0.002228321       -123.5305      0.002268472       -121.8754        0.1626595        157.5494
4.833                  0.2569229        94.96027      0.002211562       -123.5677      0.002256011       -121.9992        0.1631143        157.3906
4.834                  0.2554407        94.90137      0.002195317        -123.596      0.002243758       -122.1233        0.1634933        157.2091
4.835                  0.2539919        94.84516      0.002179597        -123.616      0.002231671       -122.2482        0.1637708        157.0283
4.836                  0.2525763        94.79114      0.002164411       -123.6286      0.002219706       -122.3736         0.163974        156.8714
4.837                  0.2511935        94.73883      0.002149762       -123.6344      0.002207839       -122.4983        0.1641685        156.7484
4.838                  0.2498433         94.6878      0.002135652       -123.6342      0.002196084       -122.6213        0.1644222        156.6506
4.839                   0.248525        94.63753      0.002122086       -123.6286      0.002184476       -122.7421        0.1647674        156.5554
4.84                    0.247238        94.58755      0.002109065       -123.6184      0.002173054        -122.861        0.1651825        156.4388
4.841                  0.2459812        94.53737      0.002096592       -123.6044      0.002161841        -122.979        0.1656041        156.2888
4.842                  0.2447538        94.48656      0.002084665       -123.5875      0.002150822       -123.0972        0.1659618        156.1118
4.843                  0.2435546        94.43471      0.002073279       -123.5687      0.002139957       -123.2164        0.1662173        155.9296
4.844                  0.2423823        94.38138      0.002062424       -123.5489      0.002129199       -123.3363         0.166386        155.7666
4.845                  0.2412356        94.32614      0.002052084        -123.529      0.002118521        -123.456        0.1665284         155.637
4.846                  0.2401131        94.26861      0.002042246       -123.5097      0.002107925       -123.5743        0.1667171        155.5367
4.847                  0.2390132        94.20848      0.002032893       -123.4918      0.002097447       -123.6903        0.1669966        155.4451
4.848                  0.2379343        94.14537      0.002024013        -123.476      0.002087128       -123.8043         0.167358        155.3369
4.849                  0.2368748          94.079       0.00201559        -123.463      0.002076997       -123.9172        0.1677436        155.1962
4.85                   0.2358329        94.00908      0.002007608       -123.4536      0.002067047       -124.0302         0.168079        155.0251
4.851                  0.2348068        93.93538      0.002000047       -123.4486      0.002057245       -124.1442        0.1683141        154.8428
4.852                  0.2337947        93.85767      0.001992884       -123.4487       0.00204754       -124.2593        0.1684513        154.6747
4.853                  0.2327949        93.77579      0.001986093       -123.4546      0.002037897       -124.3746        0.1685442         154.539
4.854                  0.2318055        93.68957      0.001979645       -123.4667      0.002028314       -124.4887        0.1686688        154.4359
4.855                  0.2308246         93.5989      0.001973517       -123.4855       0.00201882       -124.6007        0.1688813        154.3478
4.856                  0.2298506        93.50368      0.001967684       -123.5113       0.00200946       -124.7104        0.1691862        154.2488
4.857                  0.2288815        93.40389      0.001962123       -123.5445      0.002000269       -124.8187         0.169534        154.1189
4.858                  0.2279157        93.29947      0.001956811       -123.5853       0.00199125        -124.927        0.1698477        153.9556
4.859                  0.2269514        93.19046      0.001951725       -123.6342      0.001982373       -125.0364        0.1700659        153.7751
4.86                    0.225987        93.07689      0.001946837       -123.6915      0.001973588       -125.1471        0.1701772        153.6034
4.861                  0.2250208        92.95881      0.001942118       -123.7573      0.001964854       -125.2583        0.1702263         153.462
4.862                  0.2240514        92.83634       0.00193754       -123.8318       0.00195616       -125.3687        0.1702908         153.356
4.863                  0.2230772        92.70958      0.001933074       -123.9149       0.00194753        -125.477        0.1704377        153.2712
4.864                  0.2220968         92.5787      0.001928699       -124.0064      0.001939011       -125.5829        0.1706863        153.1813
4.865                   0.221109        92.44388      0.001924393       -124.1063      0.001930644       -125.6871        0.1709964         153.063
4.866                  0.2201125         92.3053      0.001920137       -124.2145      0.001922441        -125.791        0.1712906        152.9087
4.867                  0.2191062        92.16319      0.001915909       -124.3308      0.001914379        -125.896        0.1714967        152.7312
4.868                   0.218089        92.01776       0.00191169       -124.4553      0.001906407       -126.0025        0.1715882        152.5562
4.869                  0.2170599        91.86934      0.001907455       -124.5876      0.001898479         -126.11        0.1715993        152.4085
4.87                   0.2160182        91.71811      0.001903181       -124.7276      0.001890575        -126.217        0.1716068        152.2985
4.871                  0.2149631        91.56443       0.00189885       -124.8748      0.001882712       -126.3221        0.1716882        152.2157
4.872                  0.2138938        91.40859      0.001894443       -125.0287      0.001874937       -126.4246        0.1718782        152.1344
4.873                    0.21281         91.2509      0.001889948        -125.189      0.001867297       -126.5251        0.1721483        152.0279
4.874                  0.2117111        91.09169      0.001885355       -125.3551      0.001859815        -126.625        0.1724225        151.8837
4.875                  0.2105969        90.93129      0.001880654       -125.5268      0.001852474       -126.7258        0.1726185        151.7101
4.876                  0.2094669        90.77006      0.001875832       -125.7037      0.001845226       -126.8284         0.172694        151.5323
4.877                  0.2083212        90.60833      0.001870878       -125.8854      0.001838016       -126.9324        0.1726703        151.3783
4.878                  0.2071597         90.4465      0.001865778       -126.0714      0.001830816       -127.0364         0.172622        151.2635
4.879                  0.2059824        90.28488      0.001860521       -126.2613      0.001823637       -127.1387        0.1726362        151.1822
4.88                   0.2047895        90.12386      0.001855102       -126.4542      0.001816522       -127.2382         0.172764        151.1098
4.881                  0.2035812        89.96381      0.001849519       -126.6496      0.001809525       -127.3354        0.1729914        151.0165
4.882                  0.2023579        89.80505       0.00184377       -126.8471       0.00180268       -127.4315        0.1732455        150.8844
4.883                  0.2011198          89.648      0.001837857        -127.046      0.001795978       -127.5284         0.173435        150.7168
4.884                  0.1998677        89.49295      0.001831781       -127.2459      0.001789372       -127.6273        0.1735003        150.5374
4.885                   0.198602        89.34031      0.001825537       -127.4466      0.001782806        -127.728        0.1734478        150.3771
4.886                  0.1973233        89.19037      0.001819126       -127.6474      0.001776238       -127.8291        0.1733473        150.2571
4.887                  0.1960324        89.04349      0.001812545       -127.8477       0.00176967       -127.9288        0.1732947        150.1768
4.888                  0.1947301            88.9      0.001805798        -128.047      0.001763144       -128.0256        0.1733591        150.1136
4.889                  0.1934171        88.76021      0.001798892       -128.2445       0.00175672       -128.1196        0.1735433         150.035
4.89                   0.1920943        88.62442      0.001791836       -128.4398      0.001750441        -128.212        0.1737802        149.9167
4.891                  0.1907627        88.49292       0.00178464       -128.6324       0.00174431        -128.305        0.1739697        149.7565
4.892                  0.1894233        88.36599      0.001777316       -128.8219      0.001738285          -128.4        0.1740336        149.5758
4.893                   0.188077        88.24388      0.001769869       -129.0081      0.001732302       -128.4974          0.17396        149.4082
4.894                  0.1867249        88.12685      0.001762305       -129.1904       0.00172631       -128.5958         0.173811        149.2811
4.895                  0.1853681         88.0151      0.001754631       -129.3686      0.001720299        -128.693        0.1736911        149.2003
4.896                  0.1840076        87.90888      0.001746856       -129.5419      0.001714306       -128.7874        0.1736889         149.146