! TOUCHSTONE file generated by CST MICROWAVE STUDIO
! Date and time: Fri Nov 29 14:48:29 2024
! Project name: dual_circularly_polarized_waveguide_antenna.cst
! Parameters = {airCoaxOuterDiameter=3; chamferAngle=45; chamferWidth=24; connectorLength=10; drillingHoleDiameter=4.1; feedLength=60; flareDiameter=130; flareLength=70; gratingDistance=0; gratingGap=1.90274; outletLength=75; polarizerLength=134; probe1Diameter=1.3; probe1Distance=14.068; probe1Length=12.1932; probe2Diameter=1.3; probe2Distance=0; probe2Length=11.967; smaInnerDiameter=1.3; smaOuterDiameter=4.1; transitionCoefficient=1.33; waveguideFeedLength=30; waveguideSide=50; waveguideThickness=3; wireCount=25; wireDiameter=1.17699}
! Header version: 2018
! Port assignment regex: !\s*Touchstone port\s*([0-9]+)\s*=\s*(CST MWS port|CST DS port)\s*([0-9]+|Zmin|Zmax)\s*\(\"(.*)\"\)(\s*mode\s*([0-9]+))?.*
! Touchstone port assignment:
! Touchstone port 1 = CST MWS port 1 ("Input1")
! Touchstone port 2 = CST MWS port 2 ("Input2")
# GHz S MA R 50
4.5                    0.1074545        13.53348        0.4669552        107.5285        0.4669541        107.5283        0.1405003        45.62087
4.502                  0.1043095        11.25618        0.4681279        106.6968        0.4681264        106.6967        0.1361228        44.57445
4.504                   0.100436        8.408892        0.4686267        105.9758        0.4686253        105.9758        0.1305804        43.37295
4.506                 0.09564965        5.403496         0.469405        105.3859        0.4694042         105.386         0.124136        42.41481
4.508                 0.09042246        2.655982        0.4712165        104.8515        0.4712165        104.8516          0.11766        41.93348
4.51                  0.08559482       0.3145925        0.4740836        104.2536        0.4740842        104.2537        0.1120409        41.79905
4.512                  0.0818565       -1.905166        0.4772845        103.5148        0.4772852        103.5147         0.107548        41.55121
4.514                 0.07930599       -4.592141        0.4798638        102.6511        0.4798642         102.651        0.1036331        40.71618
4.516                 0.07742925       -8.237323        0.4812886        101.7573        0.4812887        101.7572        0.0993517        39.14767
4.518                 0.07550996       -12.91166        0.4818018        100.9406        0.4818015        100.9405       0.09403171        37.10242
4.52                  0.07311542       -18.26748        0.4822409        100.2467        0.4822404        100.2467       0.08769484        35.05638
4.522                 0.07034705       -23.76217        0.4834428        99.62774        0.4834423        99.62766       0.08102107        33.40107
4.524                 0.06779113        -28.9468        0.4856337        98.97467        0.4856329        98.97461       0.07490585        32.12447
4.526                  0.0662299       -33.73579        0.4882457         98.1959        0.4882447        98.19588       0.06984812        30.66479
4.528                  0.0662324       -38.49871        0.4902958        97.28202        0.4902946        97.28202       0.06560138        28.17167
4.53                  0.06785218        -43.7924        0.4910467        96.31142        0.4910456        96.31149       0.06141147        24.01425
4.532                 0.07065909       -49.90251        0.4904833        95.39695        0.4904827        95.39708       0.05662204         18.0308
4.534                 0.07406749        -56.6312        0.4892835         94.6108        0.4892838        94.61097       0.05113903         10.3724
4.536                 0.07771267       -63.44647        0.4882873        93.93692        0.4882885          93.937       0.04551946        1.180721
4.538                  0.0816934       -69.78921        0.4878139         93.2877        0.4878156        93.28767       0.04076933       -9.694922
4.54                  0.08659897       -75.37635        0.4873286        92.58109        0.4873299        92.58091       0.03803674       -22.72238
4.542                 0.09325228       -80.39193        0.4857517        91.82571        0.4857519        91.82546       0.03834644       -38.11176
4.544                   0.102207       -85.40597        0.4822563         91.1529        0.4822553        91.15267       0.04236114       -55.01762
4.546                  0.1132902       -91.00656        0.4770742        90.77145        0.4770722        90.77132       0.05010447       -71.90544
4.548                  0.1255345       -97.45292        0.4718086        90.86002        0.4718064        90.86006       0.06084255       -87.71127
4.55                    0.137512       -104.6143        0.4689752        91.44176        0.4689738        91.44193       0.07327257       -102.1008
4.552                   0.147815       -112.1128        0.4708726        92.31732        0.4708725        92.31752       0.08586896        -115.049
4.554                  0.1554641       -119.4837        0.4783871        93.13195        0.4783881        93.13208       0.09724307        -126.541
4.556                  0.1601526       -126.2827        0.4905493        93.55409        0.4905509        93.55411        0.1064505       -136.4998
4.558                  0.1622923       -132.1602        0.5051407        93.42769        0.5051419        93.42755        0.1131839       -144.8214
4.56                   0.1628428       -136.9268        0.5198294        92.79371        0.5198298        92.79353        0.1177863       -151.4516
4.562                  0.1629456       -140.6028        0.5330718        91.80789        0.5330713        91.80771        0.1210481       -156.4714
4.564                  0.1634877       -143.3991        0.5443885        90.63771        0.5443873        90.63757        0.1238299       -160.1366
4.566                  0.1648253       -145.6042         0.554071        89.39506        0.5540696        89.39502        0.1266905       -162.8129
4.568                    0.16685       -147.4358        0.5626276         88.1212        0.5626264        88.12121        0.1297558       -164.8238
4.57                   0.1693293       -148.9706        0.5703354        86.81397        0.5703346        86.81399        0.1329137       -166.3331
4.572                  0.1722418       -150.1965        0.5771356        85.47002        0.5771351        85.47004        0.1361507        -167.362
4.574                  0.1758545        -151.127        0.5828562        84.11127         0.582856        84.11131        0.1397406       -167.9152
4.576                  0.1805054       -151.8751        0.5875271        82.78024        0.5875272        82.78026         0.144127       -168.1069
4.578                   0.186281       -152.6251        0.5915229        81.51272        0.5915231        81.51272         0.149595       -168.1733
4.58                   0.1928687       -153.5266        0.5954154        80.31094        0.5954157        80.31091        0.1560134       -168.3559
4.582                  0.1997178       -154.6061         0.599643        79.13862        0.5996432        79.13858        0.1628884       -168.7609
4.584                  0.2063848        -155.769        0.6042426        77.94361        0.6042425        77.94353        0.1696957       -169.3195
4.586                  0.2128073        -156.878        0.6088492        76.69227        0.6088488        76.69217        0.1762323       -169.8688
4.588                  0.2193211       -157.8527        0.6129713        75.39085        0.6129706        75.39079        0.1827405       -170.2805
4.59                   0.2264037       -158.7238        0.6163483        74.07894        0.6163473         74.0789        0.1897199       -170.5542
4.592                  0.2343158       -159.6091        0.6191417        72.80049        0.6191407        72.80049        0.1975502       -170.8172
4.594                  0.2428945       -160.6283        0.6218323        71.57245        0.6218316        71.57248        0.2061946       -171.2293
4.596                  0.2516523       -161.8201        0.6248921        70.37184        0.6248916        70.37186        0.2152102       -171.8692
4.598                  0.2601036       -163.1233        0.6284565        69.15069        0.6284564         69.1507        0.2240526       -172.6886
4.6                     0.268083       -164.4254        0.6322288        67.86855        0.6322287        67.86855        0.2324428       -173.5577
4.602                  0.2758436       -165.6387        0.6356817        66.51938        0.6356816        66.51935        0.2405444       -174.3562
4.604                  0.2838733       -166.7561        0.6384149        65.13435        0.6384147        65.13432        0.2488375       -175.0512
4.606                  0.2925491       -167.8517        0.6404206        63.75988        0.6404202        63.75985        0.2577739        -175.713
4.608                  0.3018645       -169.0269         0.642082        62.42598        0.6420816        62.42596         0.267447       -176.4605
4.61                   0.3114244       -170.3393        0.6439065        61.12583        0.6439061         61.1258         0.277516       -177.3753
4.612                  0.3207087       -171.7683        0.6461735        59.82041        0.6461732        59.82037        0.2874369       -178.4491
4.614                  0.3294124       -173.2337        0.6487383        58.46516        0.6487378        58.46512        0.2968258       -179.5966
4.616                  0.3376353       -174.6515         0.651126        57.04029        0.6511254        57.04025        0.3057034        179.2839
4.618                  0.3457999       -175.9875        0.6528489        55.56345        0.6528481        55.56343        0.3144651        178.2449
4.62                   0.3543544       -177.2766        0.6537258        54.07733         0.653725        54.07734        0.3235975        177.2595
4.622                  0.3634553       -178.5962        0.6539927        52.62115         0.653992        52.62116        0.3333312        176.2442
4.624                  0.3728509        179.9881        0.6541338        51.20484        0.6541335        51.20487        0.3434712        175.1201
4.626                  0.3820453        178.4658        0.6545476         49.8029        0.6545475        49.80292        0.3535235        173.8657
4.628                  0.3906221         176.885        0.6552718         48.3722        0.6552719        48.37219        0.3630227        172.5277
4.63                   0.3985074        175.3179        0.6559565        46.88179        0.6559564        46.88176        0.3718307        171.1864
4.632                  0.4060018        173.8138        0.6560996         45.3339        0.6560992        45.33386        0.3802106        169.9027
4.634                  0.4135635        172.3692        0.6553809        43.76239        0.6553804        43.76234        0.3886325        168.6811
4.636                  0.4214865        170.9323        0.6538703        42.21035        0.6538695        42.21031        0.3974397        167.4697
4.638                  0.4296893        169.4403        0.6519747        40.70206         0.651974        40.70204        0.4066009        166.1992
4.64                   0.4377614        167.8627        0.6501611        39.22735        0.6501605        39.22734        0.4157222        164.8306
4.642                  0.4452314        166.2197        0.6486416        37.74899         0.648641        37.74898        0.4243062        163.3808
4.644                  0.4518698        164.5678         0.647232        36.22845        0.6472315        36.22844        0.4320737        161.9087
4.646                  0.4578269        162.9625        0.6454805        34.65253          0.64548        34.65252        0.4391359        160.4763
4.648                  0.4635211        161.4232        0.6429743        33.04247        0.6429738        33.04246         0.445905        159.1097
4.65                   0.4693482        159.9226        0.6396167        31.44025        0.6396161        31.44025        0.4528057         157.784
4.652                  0.4754077        158.4068        0.6356906        29.88136        0.6356902        29.88137        0.4599779        156.4429
4.654                  0.4814303        156.8327        0.6316727        28.37185        0.6316724        28.37184        0.4671758        155.0383
4.656                  0.4869562        155.1972        0.6279182        26.88453         0.627918        26.88451        0.4739302        153.5628
4.658                   0.491637        153.5378        0.6244302        25.37773        0.6244299         25.3777        0.4798584        152.0536
4.66                   0.4954595        151.9081        0.6208681        23.82391        0.6208676        23.82385        0.4849116        150.5674
4.662                  0.4987464        150.3431        0.6167878        22.22844         0.616787        22.22838        0.4893967        149.1438
4.664                  0.5019348        148.8379        0.6119467        20.62633        0.6119457         20.6263        0.4937642        147.7807
4.666                  0.5052806        147.3518        0.6064712         19.0592        0.6064702         19.0592         0.498299        146.4378
4.668                  0.5086846        145.8375        0.6007775        17.54796        0.6007766        17.54799        0.5029261         145.065
4.67                   0.5117615        144.2734        0.5953002        16.07847        0.5952996        16.07847        0.5072622        143.6376
4.672                  0.5141019        142.6777        0.5902097        14.61087        0.5902094         14.6109        0.5108769        142.1722
4.674                  0.5155443        141.0965         0.585309        13.10643        0.5853087        13.10643          0.51358        140.7157
4.676                  0.5162813        139.5736        0.5801787        11.55361        0.5801784         11.5536        0.5155464        139.3143
4.678                  0.5167309        138.1224        0.5744704        9.975943        0.5744698        9.975931        0.5171969         137.984
4.68                   0.5172563        136.7177        0.5681459        8.416008        0.5681452           8.416        0.5189148        136.7008
4.682                  0.5179237        135.3137        0.5615094        6.906941        0.5615088        6.906939        0.5207879        135.4181
4.684                  0.5184619        133.8756        0.5550102        5.449511        0.5550095        5.449515        0.5225529        134.0991
4.686                  0.5184503        132.4032        0.5489477         4.01033        0.5489471        4.010334        0.5237786        132.7422
4.688                  0.5176058         130.932        0.5432793        2.543248        0.5432786        2.543252        0.5241607        131.3821
4.69                   0.5159719        129.5094        0.5376582        1.019758        0.5376574        1.019768        0.5237267         130.067
4.692                   0.513892        128.1646        0.5316745      -0.5526325        0.5316737      -0.5526079        0.5228177        128.8276
4.694                  0.5117806        126.8899        0.5251337       -2.136434        0.5251329       -2.136387        0.5218612        127.6572
4.696                  0.5098473         125.647        0.5181853       -3.690216        0.5181846       -3.690149        0.5210842        126.5178
4.698                   0.507961        124.3938         0.511221       -5.197666        0.5112206       -5.197591        0.5203651        125.3668
4.7                     0.505747         123.115        0.5046108       -6.680631        0.5046107       -6.680564        0.5193254        124.1875
4.702                  0.5028505        121.8335        0.4984532       -8.186673        0.4984532       -8.186628        0.5175956        123.0017
4.704                  0.4991823        120.5969        0.4925085       -9.758785        0.4925085       -9.758767         0.515073        121.8563
4.706                   0.494987        119.4476        0.4863589       -11.40807        0.4863587       -11.40807         0.511998        120.7933
4.708                  0.4906877        118.3963        0.4796819       -13.10815        0.4796815       -13.10815        0.5088011        119.8239
4.71                   0.4866115        117.4168        0.4724526       -14.81455         0.472452       -14.81453        0.5058216        118.9219
4.712                  0.4827827        116.4664        0.4649428       -16.49622        0.4649423       -16.49617        0.5030916        118.0448
4.714                  0.4789294         115.518        0.4575216       -18.15867        0.4575212       -18.15861        0.5003363         117.165
4.716                  0.4746995        114.5832        0.4503889       -19.84324        0.4503887       -19.84317        0.4971911        116.2924
4.718                   0.469935        113.7073        0.4434221       -21.60174        0.4434219       -21.60167        0.4934844        115.4703
4.72                   0.4648214        112.9426        0.4362361       -23.46323         0.436236       -23.46317        0.4893926        114.7487
4.722                  0.4598086        112.3151        0.4284147       -25.41556        0.4284147        -25.4155        0.4853649        114.1525
4.724                  0.4553592        111.8083        0.4197538       -27.41348        0.4197539       -27.41343        0.4818668        113.6655
4.726                  0.4516924        111.3747        0.4103592       -29.40737        0.4103593       -29.40732        0.4791176        113.2415
4.728                  0.4487044        110.9687        0.4005411       -31.37416        0.4005414       -31.37413         0.477006        112.8363
4.73                   0.4461215        110.5769        0.3905798        -33.3307          0.39058       -33.33069        0.4752431         112.437
4.732                  0.4437726        110.2222        0.3805164       -35.31976        0.3805165       -35.31977        0.4736394        112.0662
4.734                  0.4417835        109.9402        0.3701116        -37.3764        0.3701116       -37.37643        0.4723064        111.7589
4.736                  0.4405518        109.7422        0.3589989       -39.49663        0.3589987       -39.49665        0.4716373        111.5284
4.738                  0.4405143        109.5933        0.3469299       -41.62908        0.3469296       -41.62908        0.4720737        111.3447
4.74                   0.4418624         109.421        0.3339518       -43.69504        0.3339515         -43.695        0.4738181        111.1421
4.742                  0.4444062        109.1511        0.3204084       -45.62526        0.3204083       -45.62518         0.476692        110.8525
4.744                  0.4476822        108.7439        0.3067652       -47.39252        0.3067653       -47.39243        0.4802389        110.4398
4.746                   0.451221        108.2058        0.2933687       -49.01927         0.293369        -49.0192        0.4839937        109.9111
4.748                  0.4547847        107.5713        0.2802936       -50.55237        0.2802939       -50.55234         0.487725        109.2997
4.75                   0.4584193        106.8696        0.2673785       -52.01891        0.2673789       -52.01893        0.4914927        108.6341
4.752                  0.4623007        106.1006        0.2544253       -53.39325        0.2544254        -53.3933         0.495494         107.915
4.754                  0.4664945        105.2358        0.2414203       -54.59964        0.2414203       -54.59969        0.4998163        107.1148
4.756                  0.4708024        104.2411        0.2286294       -55.55274        0.2286292       -55.55278        0.5042762        106.1998
4.758                  0.4748057        103.1061        0.2164938       -56.21417        0.2164936        -56.2142        0.5084579        105.1582
4.76                    0.478072        101.8563        0.2053894       -56.62831        0.2053892       -56.62829        0.5119238        104.0126
4.762                  0.4803838        100.5435        0.1954051       -56.90543         0.195405        -56.9054          0.51445        102.8109
4.764                  0.4818366        99.21886        0.1863024       -57.15416        0.1863024       -57.15414        0.5161309        101.6013
4.766                  0.4827447        97.90754        0.1776924        -57.4096        0.1776924       -57.40957        0.5172864        100.4076
4.768                  0.4834178        96.60032         0.169306       -57.61272         0.169306       -57.61267        0.5182328        99.22021
4.77                   0.4839546         95.2664         0.161166       -57.65855         0.161166       -57.65848        0.5190694        98.00935
4.772                  0.4841891         93.8803        0.1535463       -57.48285        0.1535465       -57.48279        0.5196237        96.75018
4.774                  0.4838225        92.44325        0.1467476        -57.1291        0.1467479        -57.1291        0.5195855        95.44367
4.776                  0.4826461        90.98587        0.1408444       -56.74031        0.1408447       -56.74037        0.5187377        94.11899
4.778                  0.4807021        89.55038        0.1355925       -56.46847        0.1355927       -56.46858        0.5171215         92.8163
4.78                   0.4782768        88.16484        0.1305721       -56.36791         0.130572       -56.36805        0.5150284        91.56206
4.782                  0.4757305        86.82601        0.1254556       -56.35765        0.1254554       -56.35773        0.5128246        90.35272
4.784                  0.4732765        85.50231        0.1202052       -56.27924        0.1202049       -56.27922        0.5107228        89.15786
4.786                  0.4708585         84.1558        0.1150663       -56.01049        0.1150661        -56.0104        0.5086589        87.94169
4.788                  0.4682095        82.76834        0.1103669       -55.56242        0.1103669        -55.5623        0.5063546        86.68759
4.79                   0.4650515        81.35389        0.1062566       -55.08668        0.1062567       -55.08658         0.503525        85.40964
4.792                  0.4612972        79.94918        0.1025757       -54.77127        0.1025759       -54.77127        0.5000851        84.14303
4.794                   0.457121          78.589       0.09895594       -54.69843       0.09895612       -54.69849        0.4962186        82.92031
4.796                  0.4528536        77.28254       0.09507262       -54.77827       0.09507269       -54.77838        0.4922647        81.74915
4.798                  0.4487689        76.00627       0.09085777       -54.80354       0.09085775       -54.80365        0.4884978        80.60652
4.8                    0.4449096        74.71898       0.08653316       -54.58433       0.08653309       -54.58442         0.484951        79.45352
4.802                  0.4410683        73.38919       0.08244565       -54.08301       0.08244559       -54.08307        0.4814031        78.26155
4.804                  0.4369375          72.016       0.07881152       -53.45653       0.07881146        -53.4566        0.4775386        77.03136
4.806                  0.4323242         70.6291       0.07555048       -52.94992       0.07555038          -52.95        0.4731674        75.79193
4.808                  0.4272828        69.26842        0.0723416       -52.70549       0.07234145       -52.70555        0.4683567        74.58066
4.81                   0.4220817        67.95669        0.0688567       -52.64217       0.06885652       -52.64217        0.4633879        73.41747
4.812                  0.4170247        66.68297       0.06498993       -52.49167       0.06498978       -52.49158        0.4585679        72.29047
4.814                  0.4122491        65.40879       0.06092802       -51.95798       0.06092798       -51.95783        0.4540233        71.16294
4.816                  0.4076362        64.09336       0.05702136       -50.91325       0.05702146       -50.91312         0.449618        69.99781
4.818                  0.4028973        62.72074        0.0535335       -49.51003       0.05353368       -49.51001        0.4450499        68.78262
4.82                   0.3977723        61.31024       0.05044131        -48.0835       0.05044144       -48.08365        0.4400602        67.53748
4.822                  0.3922054        59.90286       0.04745211       -46.86918       0.04745212       -46.86944        0.4346083        66.30122
4.824                  0.3863827        58.53334       0.04423209       -45.76618       0.04423194       -45.76643        0.4288985        65.10475
4.826                  0.3806059        57.20558       0.04066134       -44.32864       0.04066109       -44.32873        0.4232412        63.94914
4.828                  0.3750898         55.8883       0.03693777       -41.97209       0.03693754       -41.97194        0.4178416        62.80355
4.83                   0.3698176        54.53466       0.03346828       -38.31334       0.03346817       -38.31299        0.4126606        61.62514
4.832                  0.3645543        53.11313       0.03059511       -33.48478       0.03059515       -33.48441        0.4074427        60.38769
4.834                  0.3590073        51.62817       0.02833721       -28.05751       0.02833734       -28.05731        0.4018907        59.09899
4.836                  0.3530221        50.11664       0.02640172       -22.41783       0.02640184       -22.41786        0.3958649        57.79521
4.838                  0.3466828        48.62251       0.02450207       -16.18985       0.02450213       -16.18999        0.3894737        56.51615
4.84                   0.3402522        47.16633       0.02270569       -8.357156       0.02270569       -8.357275        0.3829962        55.27759
4.842                  0.3339935        45.72945       0.02151803        1.784225       0.02151803         1.78417        0.3766908        54.05906
4.844                  0.3279917        44.26407       0.02153826        13.28399       0.02153827        13.28392        0.3706173        52.81603
4.846                  0.3220966        42.72394       0.02287007        23.80112       0.02287005        23.80101        0.3645956        51.50918
4.848                  0.3160249        41.09427       0.02502154        31.96544       0.02502147        31.96538        0.3583274        50.13052
4.85                   0.3095488        39.40073       0.02743677        38.19753       0.02743669        38.19762        0.3515954         48.7083
4.852                  0.3026439        37.69122       0.02993331        43.50834       0.02993327        43.50855        0.3444035        47.28758
4.854                  0.2954997        36.00268       0.03272002        48.45031       0.03272008        48.45054        0.3369679        45.89917
4.856                  0.2883884        34.33367       0.03611535        52.86018       0.03611551        52.86024        0.3295649        44.53693
4.858                  0.2814799        32.64143       0.04021566        56.25884       0.04021584        56.25871        0.3223391        43.15925
4.86                   0.2747249        30.86672       0.04479147        58.42383       0.04479154        58.42357        0.3152006        41.71499
4.862                  0.2678863        28.97075       0.04946583        59.57724       0.04946577        59.57697        0.3078816         40.1768
4.864                  0.2606952        26.95864        0.0539785        60.18246        0.0539783        60.18231        0.3001115        38.55885
4.866                  0.2530223        24.87392       0.05834056        60.65555       0.05834033        60.65555        0.2917891        36.90686
4.868                  0.2449548         22.7674       0.06280288        61.17198       0.06280271        61.17209        0.2830396        35.26705
4.87                   0.2367309        20.65996       0.06766632         61.6332       0.06766628        61.63335          0.27412        33.65341
4.872                   0.228577        18.52214       0.07306034        61.80262       0.07306039        61.80272        0.2652378        32.03447
4.874                  0.2205543        16.28541       0.07885341        61.51124       0.07885352        61.51125        0.2564031        30.35011
4.876                  0.2125153        13.87959       0.08475668        60.77433       0.08475675         60.7743        0.2474132        28.54891
4.878                  0.2041991        11.27192       0.09052884        59.75824       0.09052883        59.75818        0.2379796        26.62089
4.88                   0.1953961        8.481369       0.09613428        58.66026       0.09613423        58.66021        0.2279081        24.60376
4.882                  0.1860743        5.559016        0.1017589         57.5914        0.1017589        57.59137        0.2172112        22.55828
4.884                    0.17639        2.545942        0.1076787        56.52364        0.1076786        56.52362        0.2060841        20.52761
4.886                  0.1665815      -0.5675464        0.1140663        55.32712        0.1140662        55.32711        0.1947625        18.50481
4.888                  0.1568162       -3.857382        0.1208701        53.86898          0.12087        53.86896        0.1833552        16.43015