! TOUCHSTONE file generated by CST MICROWAVE STUDIO
! Date and time: Fri Nov 29 14:48:30 2024
! Project name: dual_circularly_polarized_waveguide_antenna.cst
! Parameters = {airCoaxOuterDiameter=3; chamferAngle=45; chamferWidth=24; connectorLength=10; drillingHoleDiameter=4.1; feedLength=60; flareDiameter=130; flareLength=70; gratingDistance=0; gratingGap=1.90274; outletLength=105; polarizerLength=134; probe1Diameter=1.3; probe1Distance=14.068; probe1Length=12.1932; probe2Diameter=1.3; probe2Distance=0; probe2Length=11.967; smaInnerDiameter=1.3; smaOuterDiameter=4.1; transitionCoefficient=1.33; waveguideFeedLength=30; waveguideSide=50; waveguideThickness=3; wireCount=25; wireDiameter=1.17699}
! Header version: 2018
! Port assignment regex: !\s*Touchstone port\s*([0-9]+)\s*=\s*(CST MWS port|CST DS port)\s*([0-9]+|Zmin|Zmax)\s*\(\"(.*)\"\)(\s*mode\s*([0-9]+))?.*
! Touchstone port assignment:
! Touchstone port 1 = CST MWS port 1 ("Input1")
! Touchstone port 2 = CST MWS port 2 ("Input2")
# GHz S MA R 50
4.5                    0.1203962         3.69713        0.5057963        102.0606        0.5057958        102.0605        0.1459322        37.23513
4.502                  0.1166481       0.6818778        0.5040628        101.1424        0.5040619        101.1422        0.1401967        35.62024
4.504                  0.1122863       -2.712985        0.5020171        100.3359        0.5020158        100.3358        0.1335231        33.93206
4.506                  0.1075021       -6.206858        0.5003508        99.61336        0.5003495        99.61338        0.1263965        32.39124
4.508                  0.1029176       -9.649465        0.4992748        98.89348        0.4992738        98.89359        0.1195455        30.98912
4.51                  0.09922704       -13.18519        0.4982964        98.10216        0.4982961        98.10232        0.1134039        29.40566
4.512                 0.09676916       -17.25825        0.4964767        97.23538        0.4964774        97.23556        0.1077212         27.1354
4.514                 0.09530578       -22.40019        0.4930217        96.38233        0.4930233        96.38243        0.1016209        23.75787
4.516                  0.0941616       -28.94866        0.4878592        95.69516        0.4878612        95.69516        0.0940579        19.13258
4.518                 0.09258744       -36.91743        0.4818773        95.32071        0.4818791        95.32056       0.08432367        13.40474
4.52                  0.09007624       -46.04876        0.4766798         95.3229        0.4766807        95.32264       0.07232148        6.902505
4.522                 0.08649143       -55.92992        0.4739456        95.63464        0.4739454        95.63437        0.0585605       0.0389541
4.524                 0.08202891       -66.08791        0.4747117        96.07365        0.4747103        96.07343       0.04395891       -6.732824
4.526                  0.0770933       -76.05106        0.4789821        96.42145          0.47898        96.42136       0.02957048       -12.88371
4.528                 0.07215793       -85.39634        0.4858696        96.51495        0.4858674          96.515       0.01633223         -17.476
4.53                  0.06764918       -93.79271        0.4941032        96.29131        0.4941017        96.29147      0.004934941       -14.57037
4.532                 0.06387433       -101.0317        0.5025376        95.77322        0.5025372        95.77344      0.004668444        136.8953
4.534                 0.06100378       -107.0263        0.5104084        95.02517        0.5104091        95.02539        0.0118975         141.244
4.536                 0.05910947       -111.7824        0.5173156        94.11649        0.5173171        94.11661       0.01723969        140.6653
4.538                  0.0582372       -115.3793        0.5230825        93.10611        0.5230842        93.10611       0.02088069        140.5036
4.54                  0.05845732       -117.9958         0.527649        92.04471        0.5276504        92.04464       0.02312737         141.704
4.542                 0.05983732       -119.9466        0.5310696        90.98036        0.5310705        90.98024       0.02445321        144.8503
4.544                 0.06234156       -121.6372        0.5335664        89.95595        0.5335665        89.95581       0.02554213        150.1091
4.546                 0.06574854       -123.4117        0.5355344        88.99782         0.535534        88.99771       0.02712654        156.7617
4.548                 0.06968228        -125.404        0.5374324         88.1043        0.5374317        88.10425       0.02960871        163.3382
4.55                  0.07376089       -127.5139        0.5395909        87.24593        0.5395901        87.24593       0.03283915        168.6998
4.552                  0.0777716       -129.5106        0.5420604        86.38192        0.5420598        86.38194       0.03635161        172.7592
4.554                 0.08176678       -131.1863         0.544615        85.48458        0.5446146        85.48463       0.03979481        176.1331
4.556                 0.08601477       -132.4846        0.5469272        84.55591        0.5469271        84.55598       0.04319383         179.465
4.558                 0.09081337        -133.537        0.5488085         83.6247        0.5488086        83.62475       0.04691301       -177.0315
4.56                  0.09627164       -134.5772         0.550356        82.72601        0.5503564        82.72607       0.05136007       -173.6583
4.562                  0.1022159       -135.7849        0.5519076        81.87633        0.5519082        81.87638       0.05664435       -170.9101
4.564                  0.1082943        -137.181        0.5538289        81.06064        0.5538296        81.06066       0.06248238       -169.0339
4.566                  0.1142035       -138.6388         0.556274        80.24072        0.5562749        80.24072       0.06841739       -167.8793
4.568                  0.1198812       -139.9827        0.5590856         79.3798        0.5590863        79.37977       0.07414214       -167.0656
4.57                   0.1255456       -141.1024        0.5619047        78.46602        0.5619053        78.46596       0.07969301       -166.2407
4.572                  0.1315523        -142.021        0.5644171        77.51886        0.5644174        77.51879       0.08540794       -165.2689
4.574                  0.1381536       -142.8745        0.5665659        76.57443         0.566566        76.57435       0.09167718       -164.2687
4.576                  0.1453226       -143.8177        0.5685896        75.65981        0.5685894        75.65976       0.09865312       -163.4841
4.578                  0.1527722       -144.9226        0.5708588        74.77384        0.5708586        74.77382        0.1061395       -163.0829
4.58                   0.1601526       -146.1442        0.5736215          73.887        0.5736214          73.887        0.1137411        -163.044
4.582                  0.1672863       -147.3647        0.5768312        72.96081        0.5768311        72.96082        0.1211468       -163.1953
4.584                  0.1742847       -148.4769        0.5801765        71.97319        0.5801765        71.97321        0.1283394       -163.3389
4.586                  0.1814732        -149.453        0.5832894        70.93223        0.5832896        70.93223         0.135602       -163.3722
4.588                  0.1891711       -150.3589        0.5859895        69.86901        0.5859897        69.86902        0.1433185        -163.338
4.59                   0.1974724       -151.3063        0.5883962        68.81572        0.5883966        68.81573        0.1517017       -163.3772
4.592                  0.2061811       -152.3767        0.5908391        67.78322        0.5908395        67.78322        0.1606429        -163.619
4.594                  0.2149465       -153.5725        0.5936243        66.75333        0.5936247        66.75333        0.1697936       -164.0925
4.596                  0.2234993       -154.8249         0.596818        65.69098        0.5968185        65.69095        0.1788105       -164.7193
4.598                  0.2318259        -156.046        0.6001947        64.56757        0.6001951        64.56752        0.1875868       -165.3752
4.6                    0.2401705        -157.187        0.6033821        63.37961        0.6033823        63.37957        0.1963155       -165.9722
4.602                   0.248864       -158.2671        0.6061022        62.14981        0.6061022        62.14977        0.2053501       -166.5096
4.604                  0.2580931       -159.3574        0.6083443        60.91083        0.6083441        60.91079        0.2149532       -167.0641
4.606                  0.2677679       -160.5304        0.6103541        59.68302        0.6103539        59.68299        0.2251093       -167.7306
4.608                  0.2775783       -161.8124        0.6124518        58.46077        0.6124515        58.46076        0.2355325       -168.5553
4.61                   0.2871991       -163.1712        0.6147993        57.21648        0.6147991         57.2165        0.2458612       -169.5089
4.612                   0.296498       -164.5415        0.6172767         55.9195        0.6172766        55.91952        0.2558964       -170.5129
4.614                  0.3056118       -165.8689        0.6195497         54.5567        0.6195497        54.55671        0.2657239       -171.4925
4.616                  0.3148427       -167.1439        0.6212787        53.14101        0.6212788        53.14101        0.2756437       -172.4227
4.618                   0.324445       -168.4044        0.6223275        51.70246        0.6223277        51.70247        0.2859551       -173.3388
4.62                   0.3344434       -169.7076        0.6228323        50.26853        0.6228326        50.26853        0.2967426       -174.3074
4.622                  0.3446101       -171.0904        0.6230888        48.84658        0.6230891        48.84657        0.3078119       -175.3779
4.624                  0.3546119       -172.5462        0.6233341        47.41998        0.6233343        47.41998         0.318818       -176.5505
4.626                  0.3642261        -174.032          0.62357        45.96052        0.6235703        45.96049        0.3294927        -177.779
4.628                  0.3734781       -175.4976        0.6235476        44.44843        0.6235478        44.44839         0.339815       -179.0031
4.63                   0.3826154       -176.9173        0.6229189        42.88681         0.622919        42.88677        0.3500148        179.8128
4.632                  0.3919344       -178.3047        0.6214543        41.30075        0.6214542        41.30071        0.3604106        178.6601
4.634                  0.4015781       -179.7011        0.6191774        39.72233        0.6191772         39.7223        0.3711884        177.4947
4.636                  0.4114382        178.8535        0.6163346        38.17164        0.6163344        38.17164        0.3822747        176.2694
4.638                  0.4212306        177.3466        0.6132186        36.64598        0.6132184        36.64599        0.3933879        174.9653
4.64                   0.4306873        175.7993        0.6099671        35.12444        0.6099671        35.12445        0.4042302        173.6019
4.642                  0.4397334        174.2499         0.606472        33.58498         0.606472          33.585        0.4146856        172.2212
4.644                  0.4485337        172.7274        0.6024583        32.02262        0.6024585        32.02263         0.424891        170.8582
4.646                  0.4573762        171.2319        0.5976824         30.4562        0.5976827         30.4562        0.4351355        169.5173
4.648                  0.4664722        169.7341        0.5921122        28.91964        0.5921125        28.91963        0.4456548          168.17
4.65                   0.4758033        168.1946         0.585975        27.44304        0.5859752        27.44303        0.4564565        166.7736
4.652                  0.4851192         166.588        0.5796398        26.03578        0.5796399        26.03576        0.4672967        165.2987
4.654                  0.4940833        164.9179        0.5734128        24.68251        0.5734129        24.68249        0.4778177        163.7466
4.656                  0.5024668        163.2117        0.5673796        23.35499        0.5673797        23.35497        0.4877523        162.1459
4.658                  0.5102616        161.5015        0.5613992        22.03197        0.5613992        22.03197        0.4970577        160.5327
4.66                   0.5176445        159.8046        0.5552493        20.71356        0.5552492        20.71356        0.5058969        158.9289
4.662                  0.5248186        158.1138        0.5488209        19.42004        0.5488208        19.42004        0.5144839        157.3303
4.664                  0.5318424        156.4059        0.5422272        18.17623         0.542227        18.17623        0.5229004        155.7144
4.666                  0.5385601        154.6602        0.5357537        16.99178        0.5357537        16.99178        0.5310078        154.0589
4.668                  0.5446826        152.8753        0.5296827        15.85079        0.5296827        15.85079        0.5385148        152.3607
4.67                   0.5499624        151.0728          0.52411        14.71878        0.5241102        14.71878        0.5451535        150.6408
4.672                  0.5543461        149.2862        0.5188811        13.56266        0.5188813        13.56266        0.5508456         148.934
4.674                  0.5580064        147.5425        0.5136915        12.37062        0.5136916        12.37059        0.5557511        147.2699
4.676                  0.5612324        145.8476        0.5082814        11.15756        0.5082814        11.15754        0.5601671        145.6573
4.678                  0.5642496         144.186         0.502596        9.953491        0.5025959        9.953476        0.5643429        144.0814
4.68                   0.5670868         142.533        0.4968038        8.781917        0.4968037        8.781911        0.5683313        142.5166
4.682                  0.5695777        140.8727         0.491166        7.643069        0.4911659        7.643072        0.5719761        140.9452
4.684                  0.5714938        139.2096        0.4858463        6.513088        0.4858462        6.513098        0.5750394        139.3696
4.686                  0.5727176         137.566        0.4807895        5.360151        0.4807895        5.360162        0.5773831        137.8115
4.688                  0.5733403         135.967        0.4757535        4.166542        0.4757535        4.166551         0.579082        136.2973
4.69                   0.5736191        134.4245        0.4704697         2.94131        0.4704697        2.941314        0.5803924        134.8405
4.692                  0.5738241         132.929        0.4648211        1.714812        0.4648212        1.714814        0.5815997         133.433
4.694                  0.5740743        131.4556        0.4589178       0.5189225        0.4589178       0.5189236        0.5828441        132.0499
4.696                  0.5742744        129.9804        0.4530208      -0.6340642        0.4530209      -0.6340626        0.5840436        130.6663
4.698                  0.5741938        128.4958        0.4473662       -1.759756        0.4473662       -1.759755        0.5849651        129.2728
4.7                    0.5736356        127.0149        0.4420072       -2.891101        0.4420073       -2.891103        0.5853951        127.8813
4.702                  0.5725771        125.5616        0.4367835       -4.055682        0.4367835       -4.055687         0.585294        126.5159
4.704                  0.5711944        124.1544        0.4314348       -5.256523        0.4314349       -5.256527        0.5848306        125.1961
4.706                  0.5697514        122.7933        0.4257825       -6.469695        0.4257824       -6.469696        0.5842769        123.9234
4.708                  0.5684293        121.4588        0.4198516       -7.660241        0.4198514       -7.660234        0.5838316        122.6791
4.71                    0.567213        120.1249        0.4138554       -8.805777        0.4138553       -8.805758        0.5834937        121.4369
4.712                  0.5659082        118.7759        0.4080531       -9.912158        0.4080531        -9.91213        0.5830715        120.1801
4.714                  0.5642805        117.4162        0.4025766       -11.01025        0.4025766       -11.01022        0.5823198        118.9118
4.716                   0.562218        116.0668        0.3973442       -12.13529        0.3973443       -12.13527        0.5811111        117.6525
4.718                  0.5598096        114.7503        0.3921219       -13.30284         0.392122       -13.30283        0.5795251        116.4252
4.72                    0.557288        113.4754        0.3866858       -14.49814         0.386686       -14.49814        0.5777974        115.2397
4.722                  0.5548752        112.2304        0.3809761        -15.6861        0.3809762        -15.6861        0.5761627        114.0853
4.724                  0.5526357        110.9902        0.3751374        -16.8352        0.3751375        -16.8352        0.5746994        112.9373
4.726                  0.5504363        109.7332        0.3694217       -17.93945        0.3694217       -17.93945        0.5732797        111.7738
4.728                  0.5480408        108.4551        0.3640185       -19.02366        0.3640185       -19.02366        0.5716611        110.5896
4.73                   0.5452714        107.1714        0.3589282       -20.12749        0.3589283       -20.12749        0.5696533        109.3993
4.732                  0.5421293        105.9064        0.3539656       -21.27877        0.3539656       -21.27877        0.5672478         108.227
4.734                  0.5387927         104.676        0.3488886       -22.47478        0.3488886       -22.47478        0.5646224        107.0893
4.736                   0.535496        103.4773        0.3435646       -23.68438        0.3435645       -23.68437        0.5620207        105.9837
4.738                  0.5323711         102.289        0.3380584       -24.86937        0.3380584       -24.86936        0.5595864        104.8901
4.74                   0.5293588        101.0862         0.332588       -26.01118         0.332588       -26.01115        0.5572666        103.7838
4.742                  0.5262506        99.85667        0.3273755       -27.12477        0.3273756       -27.12474        0.5548501        102.6522
4.744                  0.5228317        98.60881        0.3224971       -28.25004        0.3224973       -28.25002        0.5521119         101.503
4.746                  0.5190249        97.36567        0.3178327       -29.42548         0.317833       -29.42547        0.5489662        100.3584
4.748                  0.5149406        96.14885        0.3131501       -30.66239        0.3131504        -30.6624        0.5455215        99.24005
4.75                      0.5108        94.96382         0.308264       -31.93773        0.3082642       -31.93775        0.5420053        98.15378
4.752                  0.5067833         93.7955        0.3031602       -33.21021        0.3031603       -33.21023        0.5386073        97.08527
4.754                   0.502906         92.6182        0.2980033       -34.44903        0.2980033       -34.44905        0.5353492        96.00964
4.756                  0.4990085         91.4127        0.2930244       -35.65626        0.2930245       -35.65628        0.5320698        94.90801
4.758                  0.4948639        90.17924        0.2883649       -36.86757        0.2883649       -36.86758        0.5285347        93.78028
4.76                   0.4903296        88.93709        0.2839812       -38.12976        0.2839812       -38.12977        0.5245934        92.64494
4.762                  0.4854399         87.7114        0.2796773       -39.47008        0.2796773       -39.47008        0.5202781        91.52651
4.764                  0.4803783        86.51615        0.2752392       -40.87895        0.2752391       -40.87895        0.5157771        90.43859
4.766                  0.4753488        85.34437        0.2705786        -42.3177        0.2705785       -42.31769        0.5113026         89.3747
4.768                  0.4704346        84.17256        0.2657899       -43.74613        0.2657898       -43.74611        0.5069427        88.31225
4.77                   0.4655391        82.97666        0.2610844       -45.15163        0.2610844        -45.1516        0.5025997        87.22821
4.772                  0.4604497        81.74861        0.2566473       -46.56082        0.2566474       -46.56079        0.4980541        86.11481
4.774                  0.4549795        80.50212        0.2525126       -48.02476        0.2525128       -48.02473        0.4931123        84.98524
4.776                  0.4490894        79.26389        0.2485419       -49.58698        0.2485421       -49.58697        0.4877336        83.86505
4.778                  0.4429095        78.05601        0.2445192       -51.25666        0.2445194       -51.25667        0.4820522        82.77524
4.78                   0.4366457        76.88143        0.2402955       -53.00514        0.2402957       -53.00515        0.4762815        81.71835
4.782                  0.4304363        75.72211        0.2358848       -54.78803        0.2358849       -54.78806         0.470564        80.67702
4.784                  0.4242549         74.5518        0.2314512       -56.57816        0.2314512       -56.57818        0.4648711        79.62637
4.786                  0.4179263        73.35494        0.2271974       -58.38815        0.2271974       -58.38816        0.4590208        78.55193
4.788                   0.411244        72.13875         0.223229       -60.26744         0.223229       -60.26744        0.4527995        77.46089
4.79                   0.4041071        70.93029        0.2194848       -62.27457        0.2194848       -62.27457        0.4461049        76.37885
4.792                  0.3965863        69.76029        0.2157793       -64.44316        0.2157793       -64.44315        0.4390124        75.33435
4.794                  0.3888736        68.64466        0.2119252       -66.76528        0.2119251       -66.76525        0.4317217        74.34143
4.796                  0.3811527         67.5757        0.2078527        -69.2026        0.2078526       -69.20257        0.4244205        73.39192
4.798                  0.3734768        66.52979        0.2036491       -71.71758        0.2036491       -71.71754        0.4171588        72.46323
4.8                    0.3657386        65.48691        0.1994973       -74.30477        0.1994974        -74.3047        0.4098209        71.53684
4.802                  0.3577532        64.44896        0.1955544        -77.0026        0.1955546       -77.00254        0.4022134        70.61495
4.804                  0.3493974        63.44391        0.1918504       -79.87715        0.1918506       -79.87711        0.3942107        69.72355
4.806                  0.3407095        62.51287        0.1882715       -82.98786        0.1882717       -82.98784        0.3858558        68.89966
4.808                  0.3318847        61.68805        0.1846368        -86.3581        0.1846371        -86.3581        0.3773518         68.1709
4.81                   0.3231687        60.97599        0.1808143       -89.96944        0.1808144       -89.96946        0.3689479        67.54077
4.812                   0.314722        60.35777        0.1768018       -93.78215         0.176802       -93.78219        0.3607993        66.99018
4.814                  0.3065483        59.80727        0.1727282       -97.76799        0.1727282       -97.76804        0.3528977        66.49479
4.816                  0.2985379        59.31515        0.1687773        -101.936        0.1687773        -101.936        0.3451212        66.04664
4.818                  0.2905951        58.90092         0.165086        -106.335        0.1650859        -106.335        0.3373686        65.66376
4.82                     0.28276        58.60338        0.1616782       -111.0313        0.1616782       -111.0313        0.3296822        65.38052
4.822                  0.2752369         58.4542        0.1584734       -116.0735        0.1584734       -116.0735        0.3222722        65.22368
4.824                  0.2683063        58.45166        0.1553598       -121.4673        0.1553598       -121.4673         0.315422         65.1901
4.826                  0.2621764        58.55319        0.1522843        -127.174        0.1522843        -127.174         0.309336        65.24218
4.828                  0.2568756        58.69425         0.149306       -133.1303         0.149306       -133.1303        0.3040341        65.32549
4.83                   0.2522604          58.821        0.1465882       -139.2787        0.1465882       -139.2787        0.2993664        65.39704
4.832                  0.2481306        58.91305        0.1443354       -145.5894        0.1443355       -145.5894        0.2951344        65.44353
4.834                  0.2443651        58.97939        0.1427128       -152.0636        0.1427129       -152.0636        0.2912284        65.47624
4.836                  0.2409796        59.03189        0.1417879        -158.714        0.1417882       -158.7139        0.2876816        65.50733
4.838                  0.2380676        59.05674        0.1415245       -165.5351        0.1415247        -165.535        0.2846051         65.5256
4.84                   0.2356712        59.00638        0.1418259       -172.4814        0.1418262       -172.4814        0.2820524        65.49037
4.842                  0.2336771         58.8193        0.1426031       -179.4666        0.1426034       -179.4667        0.2799146        65.34933
4.844                  0.2318181         58.4541        0.1438289        173.6156        0.1438291        173.6155         0.277924        65.06793
4.846                  0.2297786        57.91274        0.1455539        166.8595        0.1455541        166.8594         0.275766        64.64907
4.848                  0.2273315        57.23723        0.1478759        160.3203         0.147876        160.3202        0.2732196        64.12945
4.85                   0.2244144        56.48327        0.1508768        154.0047        0.1508769        154.0046        0.2702338        63.55637
4.852                  0.2210997        55.68886          0.15456        147.8849        0.1545601        147.8849        0.2668927         62.9606
4.854                   0.217484        54.85796        0.1588243        141.9274        0.1588243        141.9273        0.2632975        62.34314
4.856                  0.2135736        53.96948        0.1634921        136.1195        0.1634921        136.1194        0.2594491        61.68465
4.858                  0.2092452        53.00595        0.1683795        130.4785        0.1683794        130.4784        0.2552127        60.97096
4.86                   0.2043068        51.98218          0.17337        125.0399        0.1733699        125.0399        0.2503883        60.21728
4.862                  0.1986165        50.95512        0.1784506        119.8329        0.1784505        119.8329         0.244837        59.47444
4.864                   0.192177        50.00865        0.1836901        114.8579          0.18369        114.8579        0.2385768        58.81325
4.866                  0.1851452        49.22337         0.189166        110.0793        0.1891661        110.0793        0.2317846        58.29695
4.868                  0.1777522        48.64989        0.1948847        105.4383        0.1948849        105.4383        0.2247041        57.95922
4.87                   0.1701852         48.3042        0.2007396        100.8784        0.2007398        100.8784        0.2175211        57.80318
4.872                   0.162516         48.1919        0.2065364        96.36873        0.2065367        96.36872         0.210295        57.82402
4.874                  0.1547281        48.34829        0.2120691        91.91152        0.2120693        91.91149        0.2029969        58.04126
4.876                  0.1468318        48.86722        0.2172015        87.53133        0.2172018        87.53128        0.1956333        58.51664
4.878                  0.1389923        49.89361        0.2219058        83.25311        0.2219059        83.25305        0.1883688        59.34096
4.88                   0.1315825        51.57272        0.2262346        79.08283        0.2262347        79.08277        0.1815604        60.59171
4.882                  0.1251114        53.97369        0.2302445         75.0009        0.2302446        75.00085        0.1756666        62.28344
4.884                  0.1200584        57.02922        0.2339162        70.97239        0.2339162        70.97234        0.1710812        64.34383
4.886                  0.1167107         60.5406        0.2371228        66.96762        0.2371227        66.96756        0.1679993        66.63721
4.888                  0.1151191        64.25365        0.2396675        62.98072        0.2396674        62.98067        0.1664101        69.02083