! TOUCHSTONE file generated by CST MICROWAVE STUDIO
! Date and time: Fri Nov 29 14:48:28 2024
! Project name: dual_circularly_polarized_waveguide_antenna.cst
! Parameters = {airCoaxOuterDiameter=3; chamferAngle=45; chamferWidth=24; connectorLength=10; drillingHoleDiameter=4.1; feedLength=60; flareDiameter=130; flareLength=70; gratingDistance=0; gratingGap=1.90274; outletLength=30; polarizerLength=134; probe1Diameter=1.3; probe1Distance=14.068; probe1Length=12.1932; probe2Diameter=1.3; probe2Distance=0; probe2Length=11.967; smaInnerDiameter=1.3; smaOuterDiameter=4.1; transitionCoefficient=1.33; waveguideFeedLength=30; waveguideSide=50; waveguideThickness=3; wireCount=25; wireDiameter=1.17699}
! Header version: 2018
! Port assignment regex: !\s*Touchstone port\s*([0-9]+)\s*=\s*(CST MWS port|CST DS port)\s*([0-9]+|Zmin|Zmax)\s*\(\"(.*)\"\)(\s*mode\s*([0-9]+))?.*
! Touchstone port assignment:
! Touchstone port 1 = CST MWS port 1 ("Input1")
! Touchstone port 2 = CST MWS port 2 ("Input2")
# GHz S MA R 50
4.5                   0.09233942        8.013765        0.4572291        109.1482         0.457464        109.0528        0.1227448        44.71686
4.502                 0.08697698        6.601814        0.4607275         108.569         0.460404        108.4791        0.1169948         44.9111
4.504                 0.08203055        4.984311        0.4640872        107.9399        0.4633723        107.8994        0.1112842         45.1691
4.506                 0.07733468        3.062876        0.4672421        107.2869        0.4664929        107.3142        0.1056685        45.55627
4.508                 0.07274407       0.8140281        0.4702659        106.6307        0.4698512        106.7107        0.1002866        46.10013
4.51                  0.06820095       -1.725376         0.473305        105.9776         0.473424        106.0699       0.09526714        46.75583
4.512                 0.06375389       -4.502582        0.4764849        105.3194        0.4770719        105.3786        0.0906336        47.41146
4.514                 0.05952792       -7.503389        0.4798347        104.6393        0.4805954        104.6375       0.08626425        47.93751
4.516                 0.05566545       -10.79431        0.4832667        103.9227        0.4838266        103.8625       0.08193359        48.25476
4.518                 0.05226786       -14.53043          0.48662        103.1664        0.4867081        103.0786       0.07741137        48.38024
4.52                  0.04936592       -18.91699        0.4897412         102.381        0.4893206        102.3089        0.0725631        48.42797
4.522                 0.04693187       -24.13696        0.4925625        101.5867        0.4918452        101.5648       0.06740202        48.56787
4.524                 0.04492157       -30.27779        0.4951382        100.8041        0.4944786        100.8421       0.06207169        48.96061
4.526                 0.04331884       -37.28766        0.4976222        100.0453        0.4973421        100.1231       0.05676861        49.69003
4.528                 0.04215805       -44.97124        0.5001976        99.30797        0.5004291        99.38688       0.05163881        50.72282
4.53                  0.04151891       -53.02155        0.5029932        98.57766        0.5036162         98.6192        0.0466991        51.92981
4.532                 0.04150301       -61.08306        0.5060266        97.83459        0.5067315        97.81952       0.04182844        53.18038
4.534                 0.04220654       -68.83453        0.5092017        97.06344        0.5096432        97.00052       0.03683801        54.47646
4.536                 0.04369705       -76.06349        0.5123608        96.26043        0.5123268        96.18133       0.03158062        56.07922
4.538                 0.04599464       -82.69602        0.5153639        95.43439        0.5148775        95.37785       0.02604404        58.63948
4.54                  0.04905794       -88.76656        0.5181587        94.60194        0.5174626        94.59485       0.02040326        63.45355
4.542                 0.05278127       -94.35134        0.5208039        93.77912        0.5202403        93.82382       0.01506583        73.14005
4.544                 0.05701056       -99.50733        0.5234417        92.97354         0.523284        93.04708       0.01084178        92.88261
4.546                 0.06157836       -104.2456         0.526228        92.18061        0.5265478        92.24659      0.009235542        126.2538
4.548                 0.06634791       -108.5399        0.5292586        91.38591        0.5298933        91.41252       0.01108825        158.0734
4.55                  0.07124986       -112.3566        0.5325242        90.57208        0.5331605        90.54742       0.01506404        177.1739
4.552                 0.07629639       -115.6868        0.5359175         89.7269        0.5362456        89.66422       0.02007726       -171.8358
4.554                 0.08156403       -118.5696        0.5392869        88.84877        0.5391512        88.77929       0.02581019       -165.1103
4.556                 0.08714876       -121.0932        0.5425091         87.9467        0.5419816        87.90419       0.03213881       -160.9668
4.558                 0.09311155       -123.3743        0.5455474        87.03549        0.5448894        87.03983        0.0389034       -158.5479
4.56                  0.09944041       -125.5225        0.5484658        86.12809        0.5479987        86.17612       0.04589698       -157.2661
4.562                  0.1060485       -127.6088        0.5513954        85.22946        0.5513438        85.29689        0.0529308       -156.6592
4.564                  0.1128094        -129.653        0.5544696        84.33403         0.554853        84.38782       0.05990329       -156.3761
4.566                  0.1196111       -131.6325        0.5577578        83.42846        0.5583844        83.44302       0.06683315       -156.1899
4.568                   0.126404       -133.5062        0.5612325        82.49796        0.5617955        82.46726       0.07384026       -156.0033
4.57                   0.1332212       -135.2411        0.5647824        81.53317          0.56501        81.47315        0.0810806       -155.8291
4.572                   0.140161        -136.832        0.5682648        80.53415        0.5680516        80.47435       0.08866521       -155.7425
4.574                  0.1473397       -138.3068        0.5715725        79.50964        0.5710271        79.47882       0.09660465       -155.8217
4.576                  0.1548358       -139.7161        0.5746802        78.47256        0.5740705        78.48483        0.1048078       -156.1009
4.578                  0.1626524       -141.1126        0.5776525        77.43341        0.5772737        77.48187        0.1131323       -156.5566
4.58                   0.1707149       -142.5311        0.5806072        76.39522        0.5806391        76.45574        0.1214582       -157.1233
4.582                  0.1789071       -143.9784        0.5836548        75.35212        0.5840766        75.39539        0.1297458        -157.726
4.584                   0.187125       -145.4358         0.586842        74.29213        0.5874453        74.29781        0.1380533       -158.3108
4.586                  0.1953237       -146.8727        0.5901263        73.20285        0.5906184        73.16916        0.1465058       -158.8642
4.588                  0.2035356       -148.2634        0.5933931        72.07714        0.5935391        72.02113        0.1552321       -159.4111
4.59                   0.2118532       -149.5995        0.5965066        70.91617         0.596241        70.86508        0.1642999       -159.9977
4.592                  0.2203828       -150.8937         0.599369        69.72837        0.5988245        69.70645        0.1736829       -160.6654
4.594                   0.229193       -152.1736        0.6019591        68.52518        0.6014003        68.54226        0.1832758       -161.4313
4.596                  0.2382807       -153.4694        0.6043351        67.31555        0.6040297        67.36265        0.1929475       -162.2823
4.598                  0.2475718       -154.8007        0.6065979        66.10173        0.6066887        66.15577        0.2026049       -163.1848
4.6                    0.2569555       -156.1699        0.6088366        64.87849         0.609275        64.91358        0.2122358       -164.1011
4.602                  0.2663346       -157.5634        0.6110787        63.63569        0.6116506        63.63555        0.2219114       -165.0073
4.604                  0.2756675       -158.9602        0.6132713        62.36339        0.6137024         62.3288        0.2317484       -165.9014
4.606                  0.2849842       -160.3423        0.6152998         61.0565        0.6153865        61.00454        0.2418487       -166.8023
4.608                  0.2943674        -161.703        0.6170355         59.7173        0.6167412        59.67292         0.252248       -167.7383
4.61                   0.3039097       -163.0499        0.6183878        58.35431        0.6178573        58.33841        0.2628969       -168.7326
4.612                  0.3136669       -164.4004        0.6193378        56.97854        0.6188261        56.99818        0.2736843       -169.7929
4.614                  0.3236282       -165.7738        0.6199382        55.59865         0.619688        55.64396        0.2844905       -170.9091
4.616                  0.3337191       -167.1826        0.6202785        54.21753         0.620405        54.26665        0.2952411       -172.0599
4.618                  0.3438332       -168.6279         0.620436        52.83153        0.6208743        52.86117        0.3059386       -173.2233
4.62                   0.3538781       -170.1002        0.6204326        51.43302        0.6209709        51.42941        0.3166553       -174.3869
4.622                  0.3638132       -171.5848        0.6202197        50.01464        0.6206021        49.97991        0.3274921       -175.5524
4.624                  0.3736618       -173.0691        0.6196976        48.57354        0.6197451        48.52448        0.3385244       -176.7342
4.626                  0.3834937       -174.5485        0.6187581        47.11351        0.6184526        47.07345          0.34976       -177.9511
4.628                  0.3933852       -176.0281        0.6173335        45.64394        0.6168239        45.63176        0.3611297       -179.2179
4.63                   0.4033766       -177.5201        0.6154255        44.17643         0.614955        44.19771        0.3725152        179.4617
4.632                  0.4134459       -179.0381        0.6131034        42.72038         0.612894        42.76485        0.3837977        178.0952
4.634                  0.4235117        179.4088        0.6104737        41.27973        0.6106212        41.32619        0.3949045        176.6973
4.636                  0.4334625        177.8198        0.6076332        39.85215        0.6080635        39.87855        0.4058312        175.2824
4.638                  0.4431975        176.2019        0.6046309        38.43115         0.605137        38.42503        0.4166293        173.8581
4.64                   0.4526612        174.5662        0.6014525           37.01        0.6017943        36.97433        0.4273662        172.4226
4.642                  0.4618543        172.9229        0.5980379        35.58567        0.5980558        35.53741        0.4380768        170.9666
4.644                   0.470819         171.277        0.5943195        34.16079        0.5940089        34.12288        0.4487314        169.4783
4.646                  0.4796037         169.627        0.5902645        32.74289        0.5897763         32.7334         0.459233        167.9502
4.648                  0.4882264         167.966        0.5859003        31.34116        0.5854677         31.3647        0.4694481         166.383
4.65                   0.4966522        166.2866        0.5813112        29.96231        0.5811387        30.00774        0.4792525        164.7857
4.652                  0.5047965        164.5844        0.5766079         28.6074        0.5767744         28.6531         0.488574        163.1725
4.654                  0.5125525        162.8612        0.5718846         27.2712        0.5723071        27.29531        0.4974093         161.557
4.656                  0.5198285        161.1252        0.5671819        25.94434         0.567657        25.93524        0.5058113        159.9481
4.658                  0.5265799        159.3876        0.5624759        24.61746        0.5627773        24.57935        0.5138506        158.3471
4.66                    0.532821        157.6591        0.5576943        23.28524        0.5576809        23.23614         0.521573        156.7493
4.662                  0.5386109        155.9464        0.5527553        21.94847         0.552437        21.91186        0.5289704         155.148
4.664                  0.5440224        154.2502        0.5476082        20.61346        0.5471396        20.60701        0.5359805        153.5389
4.666                  0.5491054        152.5664        0.5422583        19.28871         0.541864        19.31576        0.5425146        151.9235
4.668                  0.5538647        150.8893        0.5367643        17.98076        0.5366311        18.02857        0.5484992        150.3093
4.67                   0.5582595        149.2147        0.5312109         16.6908        0.5313995        16.73665         0.553912        148.7073
4.672                  0.5622257         147.543        0.5256686        15.41427        0.5260858        15.43605        0.5587943        147.1276
4.674                  0.5657101        145.8794        0.5201615        14.14271        0.5206063        14.12967         0.563235        145.5757
4.676                  0.5686991        144.2319        0.5146576        12.86789        0.5149177        12.82595        0.5673338        144.0506
4.678                  0.5712305        142.6082        0.5090847        11.58591        0.5090382        11.53491        0.5711586         142.546
4.68                   0.5733823        141.0127        0.5033671        10.29909        0.5030392        10.26348        0.5747213        141.0541
4.682                  0.5752414        139.4446        0.4974626        9.015152        0.4970124        9.012312        0.5779789         139.569
4.684                  0.5768715        137.8986        0.4913838        7.743751        0.4910275        7.775517        0.5808626        138.0902
4.686                  0.5782897        136.3677         0.485194        6.492139        0.4851007        6.543668        0.5833178        136.6228
4.688                  0.5794668        134.8464        0.4789793        5.261853        0.4791911        5.308517        0.5853376        135.1746
4.69                   0.5803479        133.3331        0.4728112         4.04805        0.4732237        4.067185        0.5869726        133.7528
4.692                  0.5808847         131.831        0.4667152        2.841856        0.4671294        2.823754        0.5883131        132.3606
4.694                  0.5810651        130.3462        0.4606632        1.634661        0.4608809        1.587472        0.5894526        130.9953
4.696                   0.580924        128.8849        0.4545903       0.4223194        0.4545093       0.3684083        0.5904492        129.6497
4.698                  0.5805328        127.4503         0.448429      -0.7927618        0.4480909      -0.8273663        0.5913046        128.3156
4.7                    0.5799716        126.0409        0.4421442       -2.002656        0.4417135       -2.000788        0.5919697        126.9874
4.702                   0.579297        124.6513        0.4357526       -3.197604        0.4354367        -3.15947        0.5923743        125.6644
4.704                   0.578521        123.2741        0.4293165       -4.370649        0.4292659       -4.314099        0.5924674        124.3513
4.706                  0.5776111        121.9037        0.4229172       -5.521051        0.4231537       -5.473271        0.5922459        123.0551
4.708                  0.5765104        120.5383        0.4166184       -6.654839        0.4170258       -6.639301        0.5917607         121.782
4.71                   0.5751694        119.1803        0.4104391       -7.782124        0.4108201       -7.807077        0.5910966        120.5338
4.712                  0.5735729        117.8356         0.404347        -8.91242        0.4045188       -8.966555         0.590335        119.3071
4.714                  0.5717508        116.5097        0.3982769       -10.05017        0.3981588       -10.10772         0.589519        118.0946
4.716                  0.5697674        115.2056        0.3921637       -11.19267        0.3918153       -11.22563        0.5886365        116.8882
4.718                  0.5676941        113.9214        0.3859755       -12.33145        0.3855663       -12.32316        0.5876306        115.6832
4.72                   0.5655787        112.6518        0.3797295       -13.45637        0.3794571       -13.40993        0.5864307        114.4796
4.722                  0.5634267        111.3896        0.3734848       -14.56068         0.373479       -14.49794        0.5849902        113.2825
4.724                  0.5612013        110.1292        0.3673152       -15.64456        0.3675765       -15.59588        0.5833118        112.0988
4.726                  0.5588439        108.8689        0.3612751       -16.71546        0.3616749       -16.70503        0.5814481        110.9337
4.728                  0.5563051        107.6114        0.3553741       -17.78488        0.3557186       -17.81872        0.5794781        109.7883
4.73                   0.5535687        106.3623        0.3495743       -18.86314        0.3496979       -18.92577        0.5774714        108.6583
4.732                  0.5506621        105.1271        0.3438089       -19.95467        0.3436541       -20.01612        0.5754562        107.5362
4.734                  0.5476442        103.9084        0.3380152       -21.05596        0.3376591       -21.08608        0.5734075        106.4146
4.736                  0.5445786        102.7044        0.3321644       -22.15739        0.3317805       -22.14061        0.5712628        105.2895
4.738                  0.5415055        101.5093         0.326275       -23.24804        0.3260488       -23.19137        0.5689531        104.1622
4.74                   0.5384237        100.3164         0.320404       -24.32115        0.3204431       -24.25139        0.5664389        103.0381
4.742                  0.5352929        99.12003        0.3146188       -25.37783        0.3149019       -25.32893        0.5637298         101.924
4.744                  0.5320544        97.91906        0.3089658       -26.42701        0.3093538       -26.42358        0.5608805        100.8246
4.746                  0.5286598        96.71645        0.3034473       -27.48168        0.3037521       -27.52665         0.557965        99.73991
4.748                  0.5250947        95.51792        0.2980219       -28.55295         0.298097       -28.62558        0.5550405        98.66498
4.75                   0.5213857        94.32891        0.2926237       -29.64501        0.2924349       -29.71042        0.5521212        97.59219
4.752                  0.5175876        93.15183        0.2871945       -30.75328        0.2868351       -30.77912         0.549172        96.51469
4.754                  0.5137581        91.98462        0.2817103       -31.86684        0.2813551       -31.83923        0.5461266        95.42964
4.756                  0.5099303        90.82144        0.2761925       -32.97394        0.2760127       -32.90483        0.5429206         94.3392
4.758                  0.5060977        89.65533        0.2706965         -34.068        0.2707771       -33.99014        0.5395232        93.24951
4.76                   0.5022178        88.48122        0.2652843       -35.15147         0.265584       -35.10287        0.5359517        92.16734
4.762                  0.4982327        87.29818        0.2599945       -36.23533        0.2603668       -36.24079        0.5322631        91.09663
4.764                   0.494097        86.10965        0.2548236       -37.33452        0.2550885       -37.39304        0.5285254        90.03635
4.766                  0.4897987        84.92163        0.2497272       -38.46126        0.2497581       -38.54581        0.5247846        88.98092
4.768                  0.4853648        83.73949        0.2446414        -39.6196        0.2444256        -39.6895         0.521042        87.92257
4.77                   0.4808474        82.56554        0.2395125       -40.80378         0.239156       -40.82421        0.5172545        86.85512
4.772                  0.4762991        81.39732         0.234322       -42.00142        0.2339974       -41.96062        0.5133548        85.77675
4.774                  0.4717471        80.22874        0.2290938        -43.1998        0.2289567       -43.11566        0.5092851        84.69083
4.776                  0.4671805        79.05281        0.2238819       -44.39272        0.2239965         -44.305        0.5050243        83.60401
4.778                  0.4625558        77.86459        0.2187441       -45.58441        0.2190529       -45.53605        0.5005973        82.52291
4.78                   0.4578171        76.66358        0.2137134       -46.78871        0.2140665       -46.80488         0.496062        81.45071
4.782                  0.4529225        75.45362        0.2087822       -48.02356          0.20901       -48.09879          0.49148        80.38538
4.784                  0.4478629        74.24098        0.2039058       -49.30341        0.2039006       -49.40316         0.486886        79.32053
4.786                  0.4426658        73.03124        0.1990231       -50.63324        0.1987895       -50.70967        0.4822703        78.24835
4.788                  0.4373809        71.82633        0.1940854       -52.00698         0.193737       -52.02174        0.4775831        77.16327
4.79                   0.4320556        70.62347         0.189078       -53.41147        0.1887818       -53.35467        0.4727584        76.06461
4.792                  0.4267119        69.41619        0.1840255       -54.83371         0.183922       -54.72995        0.4677456        74.95683
4.794                  0.4213356        68.19724        0.1789794       -56.26872        0.1791159        -56.1665        0.4625326        73.84722
4.796                  0.4158821        66.96183        0.1739921       -57.72382        0.1743015       -57.67301        0.4571503        72.74234
4.798                   0.410298        65.70979        0.1690919       -59.21759        0.1694263       -59.24536        0.4516562        71.64463
4.8                    0.4045446        64.44558        0.1642692       -60.77351        0.1644706       -60.87021        0.4461049        70.55114
4.802                   0.398616        63.17601        0.1594808       -62.41117        0.1594558       -62.53347        0.4405205         69.4548
4.804                  0.3925402          61.907        0.1546704        -64.1394         0.154433       -64.22953        0.4348838        68.34782
4.806                   0.386365        60.64041        0.1497941       -65.95466        0.1494576       -65.96738        0.4291415        67.22537
4.808                  0.3801342        59.37319        0.1448405       -67.84544        0.1445626       -67.77023        0.4232312         66.0881
4.81                   0.3738668        58.09835        0.1398346       -69.80093        0.1397436       -69.66875        0.4171109        64.94178
4.812                  0.3675468        56.80823        0.1348259       -71.82026         0.134962       -71.69094        0.4107783        63.79461
4.814                  0.3611316        55.49795        0.1298657       -73.91819        0.1301636       -73.85361        0.4042704        62.65322
4.816                  0.3545713        54.16767        0.1249845       -76.12456         0.125306       -76.15961        0.3976442        61.51947
4.818                   0.347832        52.82243        0.1201796       -78.47757        0.1203783       -78.60251        0.3909483        60.38945
4.82                   0.3409114        51.46979        0.1154195       -81.01386        0.1154072       -81.17637        0.3841981        59.25529
4.822                   0.333839        50.11607        0.1106613       -83.76018        0.1104463       -83.88725        0.3773682        58.10901
4.824                  0.3266614        48.76319        0.1058742       -86.73071        0.1055543       -86.76077        0.3704043        56.94658
4.826                  0.3194201        47.40738        0.1010568       -89.93153        0.1007738        -89.8429        0.3632493        55.77002
4.828                  0.3121321        46.04065       0.09624295       -93.37028       0.09611891       -93.19344        0.3558706        54.58669
4.83                   0.3047815        44.65414       0.09149388       -97.06772       0.09157942       -96.87449        0.3482747        53.40603
4.832                  0.2973278        43.24213        0.0868818       -101.0658       0.08713755       -100.9403        0.3405034        52.23508
4.834                  0.2897248        41.80452       0.08247283       -105.4294       0.08279039       -105.4322        0.3326127        51.07519
4.836                  0.2819429        40.34676       0.07831772       -110.2396       0.07856802       -110.3808        0.3246448        49.92131
4.838                  0.2739822        38.87701       0.07445449       -115.5803       0.07454065       -115.8133        0.3166075        48.76446
4.84                   0.2658725        37.40194       0.07092094       -121.5227        0.0708137       -121.7609        0.3084701        47.59622
4.842                  0.2576587        35.92293       0.06777108       -128.1095       0.06751453       -128.2601        0.3001786        46.41317
4.844                  0.2493796        34.43438       0.06508694       -135.3439       0.06477627       -135.3442        0.2916809        45.21905
4.846                  0.2410496        32.92518       0.06298019       -143.1803       0.06272392       -143.0227        0.2829522        44.02347
4.848                  0.2326514        31.38261       0.06158153       -151.5198        0.0614641        -151.255        0.2740051        42.83782
4.85                   0.2241442        29.79701       0.06102062       -160.2127       0.06107759       -159.9304         0.264882        41.67012
4.852                  0.2154814        28.16492       0.06140269       -169.0727       0.06161313       -168.8674        0.2556326        40.52127
4.854                  0.2066305         26.4892       0.06278876       -177.9026       0.06308386       -177.8387        0.2462871        39.38464
4.856                  0.1975859        24.77577       0.06518528        173.4749       0.06546942        173.3853        0.2368391        38.24949
4.858                  0.1883671        23.02833        0.0685453        165.1947       0.06872504        164.9936        0.2272444        37.10679
4.86                   0.1790055        21.24324       0.07277975        157.3418       0.07279413        157.1066         0.217439        35.95494
4.862                  0.1695248        19.40661       0.07777491        149.9569       0.07761833        149.7701         0.207364        34.80258
4.864                  0.1599236        17.49509        0.0834123        143.0485       0.08314006        142.9678        0.1969878        33.66741
4.866                  0.1501698        15.47993       0.08958631        136.6022       0.08929794         136.642        0.1863135        32.57154
4.868                  0.1402076         13.3322       0.09621584        130.5868       0.09601955         130.717        0.1753683        31.53581
4.87                   0.1299745        11.02648        0.1032469         124.957        0.1032178        125.1184        0.1641809        30.57633
4.872                  0.1194205        8.540111        0.1106454        119.6555        0.1107945        119.7848        0.1527585        29.70624
4.874                  0.1085195        5.846733        0.1183831        114.6178        0.1186509        114.6712        0.1410734        28.94416
4.876                 0.09727087        2.903411        0.1264214        109.7788        0.1267007         109.746        0.1290699        28.32923
4.878                 0.08569065      -0.3697134        0.1347006        105.0799        0.1348789        104.9842        0.1166881        27.94176
4.88                  0.07379944       -4.122566        0.1431372        100.4752        0.1431431        100.3607        0.1038988        27.93075
4.882                 0.06161788       -8.640081        0.1516316        95.93298        0.1514639        95.84601       0.09073947        28.55582
4.884                 0.04918481       -14.50288          0.16008        91.43483        0.1598085        91.40589       0.07735302        30.26518
4.886                 0.03663335       -23.08125        0.1683873        86.97055        0.1681238        87.00465       0.06404849        33.85846
4.888                 0.02449021       -38.41773        0.1764725        82.53287        0.1763246        82.61032       0.05145098        40.81886