! TOUCHSTONE file generated by CST MICROWAVE STUDIO
! Date and time: Fri Nov 29 14:48:30 2024
! Project name: dual_circularly_polarized_waveguide_antenna.cst
! Parameters = {airCoaxOuterDiameter=3; chamferAngle=45; chamferWidth=24; connectorLength=10; drillingHoleDiameter=4.1; feedLength=60; flareDiameter=130; flareLength=70; gratingDistance=0; gratingGap=1.90274; outletLength=120; polarizerLength=134; probe1Diameter=1.3; probe1Distance=14.068; probe1Length=12.1932; probe2Diameter=1.3; probe2Distance=0; probe2Length=11.967; smaInnerDiameter=1.3; smaOuterDiameter=4.1; transitionCoefficient=1.33; waveguideFeedLength=30; waveguideSide=50; waveguideThickness=3; wireCount=25; wireDiameter=1.17699}
! Header version: 2018
! Port assignment regex: !\s*Touchstone port\s*([0-9]+)\s*=\s*(CST MWS port|CST DS port)\s*([0-9]+|Zmin|Zmax)\s*\(\"(.*)\"\)(\s*mode\s*([0-9]+))?.*
! Touchstone port assignment:
! Touchstone port 1 = CST MWS port 1 ("Input1")
! Touchstone port 2 = CST MWS port 2 ("Input2")
# GHz S MA R 50
4.5                    0.1059794        6.461583        0.4534793        108.2022        0.4534792        108.2022        0.1331463        40.61449
4.502                  0.1013534        2.403527        0.4523311        107.6992        0.4523308        107.6992        0.1256679         38.6437
4.504                 0.09482358       -2.388272        0.4513038        107.5066        0.4513034        107.5066        0.1158336        36.86971
4.506                 0.08637184       -7.164363        0.4522635        107.5652        0.4522633        107.5652        0.1045761        36.17379
4.508                 0.07693928       -11.08578        0.4562367        107.6536         0.456237        107.6537        0.0938028        37.21841
4.51                  0.06803326       -13.57254        0.4627436        107.5271         0.462744        107.5271       0.08540794        39.88179
4.512                 0.06101184       -14.80285        0.4701545        107.0691        0.4701548         107.069       0.08001168         43.0308
4.514                 0.05629379        -15.9259        0.4767604        106.3409        0.4767604        106.3408       0.07651179        45.35289
4.516                 0.05313875       -18.32246         0.481761        105.5122        0.4817606        105.5122        0.0730972        46.47596
4.518                 0.05033309       -22.54204        0.4855726        104.7413        0.4855721        104.7413       0.06864795        47.06859
4.52                  0.04707797       -28.11703        0.4893441         104.079        0.4893437         104.079       0.06332694        48.18994
4.522                 0.04336493       -34.05289        0.4940364        103.4514        0.4940363        103.4515       0.05824098        50.50156
4.524                 0.03985254       -39.40145        0.4996988        102.7298         0.499699        102.7298        0.0544591        53.58294
4.526                 0.03746658       -43.88154        0.5054506        101.8361         0.505451        101.8361       0.05198446        56.06783
4.528                 0.03685402       -48.30945        0.5101452        100.8035        0.5101453        100.8035        0.0496692        56.89797
4.53                  0.03797066       -54.01963        0.5132047        99.75425        0.5132045        99.75419       0.04617554        56.24073
4.532                 0.04017438       -61.59912        0.5150477        98.81808        0.5150473        98.81806       0.04092191        55.32436
4.534                 0.04267381        -70.5019         0.516837        98.04682        0.5168365        98.04682       0.03440005        56.00805
4.536                 0.04489669       -79.58356        0.5197084         97.3783        0.5197081        97.37831       0.02795572        60.30146
4.538                 0.04668636       -87.66364        0.5240008        96.67919        0.5240008         96.6792       0.02305523        68.87233
4.54                  0.04839219       -93.91123         0.529042        95.83919        0.5290423        95.83919       0.02001614        79.13089
4.542                 0.05077535       -98.20732        0.5336439        94.84542        0.5336441        94.84536       0.01752651        88.14251
4.544                 0.05458955       -101.3127        0.5369316        93.78544        0.5369315        93.78538       0.01420651        98.26154
4.546                 0.06000514       -104.3865        0.5389314        92.78422        0.5389309        92.78418       0.01061089        120.0583
4.548                 0.06641346       -108.1267        0.5405438        91.91978        0.5405433        91.91978       0.01082766        159.5163
4.55                  0.07281606       -112.4413        0.5429273        91.17018         0.542927         91.1702       0.01644494       -176.9559
4.552                 0.07842226       -116.7437        0.5466976        90.42843        0.5466975        90.42846        0.0234973       -169.9969
4.554                 0.08307885       -120.3749        0.5515058        89.57797        0.5515059        89.57797       0.02975186        -168.087
4.556                  0.0873676       -122.9441        0.5562962         88.5732        0.5562962        88.57319       0.03478321        -166.448
4.558                 0.09228556       -124.5617        0.5600421        87.46661        0.5600421        87.46657       0.03938635       -163.4705
4.56                  0.09858696       -125.8065        0.5624355        86.36891        0.5624353        86.36889       0.04491278       -159.6433
4.562                  0.1062227       -127.3284        0.5640787        85.37378        0.5640783        85.37378       0.05214843       -156.5872
4.564                  0.1143713       -129.4061        0.5660651        84.49516        0.5660648        84.49517       0.06065463       -155.3385
4.566                   0.122019       -131.8527        0.5692247        83.65769        0.5692245        83.65772       0.06924164       -155.6655
4.568                  0.1286109       -134.2302        0.5735487         82.7497        0.5735486        82.74971       0.07688737       -156.6531
4.57                   0.1343856       -136.1381        0.5782037        81.70097        0.5782037        81.70097       0.08336147       -157.3811
4.572                  0.1402333       -137.4427        0.5821128        80.52857        0.5821127        80.52855       0.08934409       -157.3397
4.574                  0.1471254       -138.3606        0.5846803        79.32122        0.5846802        79.32121       0.09598913       -156.6446
4.576                   0.155439       -139.3088        0.5861741        78.17817        0.5861738        78.17819        0.1041017       -155.9101
4.578                  0.1646908       -140.6052        0.5875264        77.14325        0.5875262        77.14326        0.1135314       -155.7454
4.58                   0.1738966       -142.2731         0.589688        76.17555        0.5896879        76.17558        0.1233253       -156.3127
4.582                  0.1822513       -144.0782        0.5929671        75.17824        0.5929673        75.17827        0.1324545       -157.3176
4.584                  0.1896486       -145.7099        0.5968154        74.06631        0.5968156        74.06631        0.1405095       -158.2841
4.586                  0.1967485       -146.9758        0.6002059        72.82433        0.6002059        72.82433        0.1479577       -158.8542
4.588                  0.2045554       -147.9179        0.6023226        71.51436        0.6023225        71.51434         0.155844       -158.9866
4.59                   0.2137448       -148.7785        0.6030875        70.23284        0.6030873        70.23285        0.1650816       -158.9634
4.592                  0.2242012       -149.8264        0.6031864        69.04747        0.6031862         69.0475        0.1758078       -159.1699
4.594                  0.2351249       -151.1747        0.6035867        67.95367        0.6035866         67.9537        0.1873176       -159.8129
4.596                  0.2456107        -152.731        0.6048655        66.87946        0.6048656        66.87949        0.1986123        -160.812
4.598                  0.2552644       -154.2875        0.6068083        65.73767        0.6068086        65.73765        0.2091089       -161.9042
4.6                    0.2644614       -155.6654        0.6085609        64.48827        0.6085611        64.48824        0.2190321       -162.8349
4.602                  0.2741046       -156.8302        0.6092179        63.16698        0.6092179        63.16693        0.2292713       -163.5186
4.604                  0.2850227       -157.9118        0.6084377        61.86269        0.6084374        61.86267        0.2407858       -164.0876
4.606                  0.2974007       -159.1144        0.6066811        60.66156        0.6066808        60.66156        0.2539385       -164.7926
4.608                  0.3106516       -160.5792        0.6049276        59.59312        0.6049274        59.59315        0.2682451        -165.827
4.61                   0.3238121        -162.305        0.6040563        58.61266        0.6040565        58.61269        0.2827148       -167.2117
4.612                  0.3361525        -164.172        0.6043051        57.63316        0.6043054        57.63319        0.2964959       -168.8137
4.614                  0.3475856       -166.0319        0.6051816        56.58575         0.605182        56.58574        0.3093665       -170.4523
4.616                  0.3586389       -167.8012        0.6058813        55.46429        0.6058815        55.46425        0.3217822       -172.0133
4.618                  0.3700233       -169.5053        0.6058998        54.32343        0.6058996        54.32339        0.3344765       -173.5077
4.62                   0.3820812       -171.2495        0.6054126        53.23435        0.6054123        53.23432        0.3478751       -175.0467
4.622                  0.3944901       -173.1374        0.6051725        52.22893        0.6051721        52.22894        0.3617273       -176.7511
4.624                  0.4064302       -175.1961        0.6059886        51.27018        0.6059884        51.27019        0.3752147       -178.6604
4.626                  0.4170893       -177.3566        0.6081446        50.27043        0.6081448        50.27046        0.3874504        179.2946
4.628                  0.4261601       -179.4962         0.611162        49.14662        0.6111624        49.14662        0.3980192          177.25
4.63                   0.4340212        178.4912        0.6140768         47.8725        0.6140771        47.87248        0.4072216         175.331
4.632                  0.4414954        176.6366         0.616029        46.49175        0.6160291        46.49171        0.4158776        173.5847
4.634                  0.4493297        174.8833        0.6167626        45.08615        0.6167624        45.08612        0.4248066        171.9591
4.636                  0.4577238        173.1285        0.6167199        43.72232        0.6167195         43.7223        0.4343075        170.3442
4.638                  0.4662284        171.2942        0.6166832        42.41046         0.616683        42.41046        0.4439919        168.6487
4.64                   0.4740792        169.3765        0.6172044        41.10118        0.6172044        41.10119        0.4530844        166.8591
4.642                   0.480727        167.4431        0.6182057        39.72298        0.6182058          39.723        0.4609692        165.0422
4.644                  0.4862104        165.5852        0.6190233        38.23445        0.6190235        38.23444        0.4676136        163.2969
4.646                  0.4911388        163.8578         0.618853        36.65426        0.6188533        36.65423        0.4736009        161.6886
4.648                  0.4962979        162.2428        0.6172836        35.05031        0.6172836        35.05028        0.4797552        160.2057
4.65                   0.5021303        160.6609        0.6145631        33.49707         0.614563        33.49704        0.4865966        158.7674
4.652                  0.5084417        159.0243        0.6114323        32.02908         0.611432        32.02907        0.4939956        157.2774
4.654                  0.5145386        157.2942        0.6086346        30.61974        0.6086345        30.61974        0.5012684        155.6876
4.656                  0.5196957        155.5029        0.6064257        29.20069        0.6064257         29.2007        0.5076444        154.0262
4.658                  0.5236315        153.7294        0.6044175        27.70975        0.6044176        27.70972        0.5127749        152.3743
4.66                    0.526684        152.0466        0.6018589        26.13411        0.6018591        26.13409        0.5169549        150.8115
4.662                  0.5295811        150.4737        0.5981554        24.51944        0.5981555        24.51944        0.5209198        149.3637
4.664                  0.5329521        148.9641        0.5932728        22.94022        0.5932727         22.9402        0.5253494        147.9865
4.666                  0.5369019        147.4371        0.5877661        21.45173         0.587766         21.4517         0.530406        146.5956
4.668                  0.5409442        145.8327        0.5824196        20.05374        0.5824195        20.05371        0.5356264        145.1248
4.67                   0.5443329        144.1506        0.5777324        18.69053        0.5777324        18.69053         0.540241        143.5692
4.672                  0.5465617        142.4488         0.573597        17.28865         0.573597        17.28865        0.5436907        141.9859
4.674                  0.5476928         140.804        0.5693915        15.80763        0.5693916        15.80761        0.5459924         140.455
4.676                  0.5483123        139.2619        0.5644179        14.26749        0.5644179        14.26746        0.5477222        139.0273
4.678                   0.549139        137.8075        0.5583803        12.73561        0.5583802        12.73558        0.5496285         137.691
4.68                    0.550544        136.3752        0.5515896        11.28259        0.5515894        11.28256        0.5521286        136.3804
4.682                  0.5523045        134.8936        0.5447635        9.935328        0.5447632        9.935313        0.5550287        135.0208
4.684                  0.5537649        133.3342        0.5385554        8.658029        0.5385552        8.658021        0.5576664        133.5799
4.686                  0.5542841        131.7286        0.5331248        7.375303        0.5331247        7.375295        0.5593642        132.0873
4.688                  0.5536653        130.1473        0.5280449        6.023583        0.5280449        6.023569        0.5598856        130.6143
4.69                   0.5522846        128.6523        0.5226093        4.594649        0.5226093        4.594627        0.5595889        129.2257
4.692                  0.5508416        127.2569         0.516321        3.141014        0.5163208        3.140993         0.559189        127.9377
4.694                  0.5498939        125.9162        0.5092304        1.740884        0.5092301         1.74087        0.5592782        126.7069
4.696                  0.5494851        124.5576        0.5019059        0.446005        0.5019057       0.4460023        0.5599285        125.4597
4.698                  0.5491246        123.1299        0.4950582      -0.7543777         0.495058      -0.7543726        0.5606531        124.1429
4.7                    0.5481313        121.6381        0.4890666       -1.928358        0.4890666       -1.928354         0.560747        122.7593
4.702                  0.5460952        120.1384        0.4837315       -3.155819        0.4837315       -3.155825         0.559769        121.3645
4.704                  0.5431519        118.7005        0.4784233       -4.473704        0.4784232       -4.473723         0.557836        120.0292
4.706                  0.5398918        117.3618        0.4725217       -5.851194        0.4725214       -5.851217        0.5555449        118.7923
4.708                  0.5369659        116.1012        0.4658376        -7.21091        0.4658374       -7.210925        0.5535722        117.6342
4.71                   0.5346488        114.8532        0.4587405       -8.480919        0.4587403       -8.480916        0.5522173        116.4901
4.712                  0.5326581        113.5518        0.4519111       -9.644224        0.4519109       -9.644205        0.5512051        115.2937
4.714                  0.5303559        112.1762        0.4458846       -10.75301        0.4458846       -10.75298        0.5498832        114.0231
4.716                  0.5271869        110.7633        0.4406909       -11.89512         0.440691        -11.8951        0.5476718        112.7142
4.718                  0.5230509        109.3833        0.4358425       -13.13429        0.4358427       -13.13429        0.5444546        111.4365
4.72                   0.5183677        108.0921        0.4306771       -14.46696        0.4306772       -14.46698        0.5406547        110.2459
4.722                  0.5137944        106.8941        0.4248098       -15.82572        0.4248097       -15.82574        0.5369483        109.1475
4.724                   0.509781        105.7378        0.4183891       -17.12531        0.4183888       -17.12532        0.5338058        108.0909
4.726                  0.5062653        104.5502        0.4119946       -18.32087        0.4119943       -18.32087        0.5311723        107.0044
4.728                  0.5027211        103.2873        0.4062458       -19.44114        0.4062456       -19.44111         0.528511        105.8445
4.73                   0.4985208        101.9638        0.4013818        -20.5722        0.4013818       -20.57217        0.5251753        104.6253
4.732                  0.4933589        100.6428        0.3971025       -21.80007        0.3971026       -21.80004        0.5208464        103.4087
4.734                  0.4874514        99.39438        0.3927808       -23.15255         0.392781       -23.15255        0.5157438        102.2629
4.736                  0.4813863        98.24829        0.3878925        -24.5822        0.3878926       -24.58221        0.5104719        101.2167
4.738                  0.4757218        97.17343         0.382364       -26.00004         0.382364       -26.00007        0.5056067        100.2396
4.74                   0.4706038        96.09793        0.3766146       -27.33664        0.3766145       -27.33667        0.5012992         99.2616
4.742                  0.4656654        94.95928        0.3712697       -28.59158        0.3712696       -28.59159        0.4971728        98.22265
4.744                  0.4602813          93.748         0.366736       -29.83813         0.366736       -29.83814        0.4925845        97.11421
4.746                  0.4539911         92.5155        0.3629243       -31.17668        0.3629243       -31.17668        0.4870634        95.98623
4.748                  0.4468038        91.34088        0.3593139       -32.66802        0.3593138       -32.66802        0.4806231        94.91452
4.75                   0.4391844        90.27998        0.3553079       -34.29509        0.3553079        -34.2951        0.4737458        93.95141
4.752                  0.4317347        89.32846        0.3506268       -35.97828        0.3506268       -35.97829        0.4670503        93.09102
4.754                  0.4247781        88.42497        0.3454801       -37.63141        0.3454801       -37.63142         0.460864        92.27363
4.756                  0.4181372        87.49547        0.3404122        -39.2225        0.3404122        -39.2225        0.4549974        91.42884
4.758                  0.4112599        86.50851        0.3359282       -40.80051        0.3359283       -40.80053        0.4488799        90.52788
4.76                   0.4036054         85.5021        0.3321441       -42.46812        0.3321442       -42.46815        0.4419596         89.6077
4.762                  0.3950175        84.56431        0.3287024       -44.31646        0.3287024        -44.3165        0.4340851        88.75061
4.764                  0.3858393        83.78079        0.3250053       -46.36841        0.3250052       -46.36846        0.4256169        88.03459
4.766                   0.376695          83.183        0.3205964        -48.5696        0.3205962       -48.56962         0.417195         87.4848
4.768                  0.3680831        82.73121        0.3154311       -50.82957        0.3154308       -50.82956        0.4093184        87.06025
4.77                   0.3600602         82.3485        0.3098713       -53.08512        0.3098711        -53.0851        0.4020267        86.68772
4.772                  0.3522464        81.98572        0.3044166       -55.34697        0.3044166       -55.34692        0.3949142        86.32171
4.774                  0.3441531        81.66891        0.2993465       -57.69963        0.2993466       -57.69961        0.3874733        85.98663
4.776                  0.3356025        81.49549        0.2945091       -60.25163        0.2945093       -60.25164        0.3795195        85.77004
4.778                  0.3269467        81.57823        0.2893956       -63.06877        0.2893958       -63.06881        0.3714073        85.77059
4.78                    0.318938        81.97226        0.2834412       -66.13608        0.2834412       -66.13616        0.3638866        86.03302
4.782                  0.3123234        82.63212        0.2763455       -69.37112        0.2763453        -69.3712        0.3576878        86.51352
4.784                  0.3074382        83.43514        0.2682145       -72.67583         0.268214       -72.67588        0.3531181        87.10402
4.786                  0.3040954        84.25983        0.2594538       -75.99584        0.2594534       -75.99581         0.349963        87.70242
4.788                  0.3018549         85.0572        0.2504895       -79.35419        0.2504892       -79.35414        0.3477644        88.27295
4.79                   0.3004532        85.85634        0.2414901       -82.83776        0.2414901       -82.83768        0.3462554        88.84888
4.792                  0.3000579         86.7013        0.2322681       -86.54077        0.2322683        -86.5407        0.3456148        89.47689
4.794                  0.3011524        87.57164        0.2224195       -90.50064        0.2224198       -90.50064        0.3463538        90.14703
4.796                    0.30413        88.35126         0.211604       -94.66685        0.2116043       -94.66692        0.3489087         90.7638
4.798                  0.3089029        88.87685        0.1997864       -98.91953        0.1997865       -98.91963        0.3532407        91.18556
4.8                    0.3148297        89.02965        0.1873015       -103.1266        0.1873013       -103.1267         0.358748        91.30395
4.802                  0.3210143         88.7967        0.1747159       -107.2133        0.1747156       -107.2133        0.3645551        91.10072
4.804                  0.3267465        88.26073        0.1625634       -111.2112         0.162563       -111.2112        0.3699573        90.64326
4.806                   0.331783        87.53721        0.1511015       -115.2526        0.1511012       -115.2525        0.3747166        90.03066
4.808                  0.3363146        86.70536        0.1402367       -119.5019        0.1402365       -119.5017         0.379037         89.3312
4.81                   0.3406693        85.77341        0.1296639       -124.0605         0.129664       -124.0604        0.3832622        88.54922
4.812                  0.3449618        84.69515        0.1191244       -128.9082        0.1191246       -128.9081        0.3875131        87.63912
4.814                    0.34893        83.42287        0.1086132       -133.9176        0.1086134       -133.9176        0.3915157        86.55382
4.816                  0.3520595        81.95755       0.09842205       -138.9351       0.09842224       -138.9352        0.3947298        85.29187
4.818                  0.3538994        80.36267       0.08900827       -143.8966       0.08900832       -143.8967        0.3966788        83.91062
4.82                   0.3543445        78.73592       0.08076384       -148.9235       0.08076375       -148.9237        0.3972463        82.49983
4.822                   0.353704        77.15919       0.07381817        -154.324       0.07381797       -154.3242        0.3967465        81.13462
4.824                  0.3525098        75.65689       0.06800133       -160.4573       0.06800105       -160.4574        0.3957226        79.83648
4.826                  0.3511871        74.18879       0.06299119       -167.5373       0.06299093       -167.5373        0.3946014        78.56737
4.828                  0.3498001        72.68382       0.05852924       -175.5117       0.05852904       -175.5116        0.3934323         77.2619
4.83                   0.3480454        71.09357        0.0545604        175.9241        0.0545603        175.9243         0.391887        75.87726
4.832                  0.3454941        69.42888        0.0512427        167.2101       0.05124273        167.2103        0.3895174        74.42598
4.834                  0.3419117        67.75551       0.04885747         158.749       0.04885763        158.7492        0.3860881        72.97049
4.836                   0.337443        66.15404       0.04766999        150.7342       0.04767023        150.7342        0.3817618        71.58467
4.838                   0.332544        64.66889       0.04778587        143.0881       0.04778613         143.088        0.3770165        70.30689
4.84                   0.3277046        63.27892       0.04906237        135.6018       0.04906256        135.6015        0.3723502        69.11469
4.842                  0.3231435        61.91041       0.05113357        128.1724       0.05113362         128.172        0.3679664        67.93961
4.844                  0.3186829        60.48718       0.05354796        120.9304       0.05354785        120.9301        0.3636582        66.71436
4.846                  0.3138935        58.98331       0.05594967        114.1848       0.05594942        114.1845        0.3589728        65.42012
4.848                  0.3084041        57.44188        0.0582212        108.2673       0.05822088        108.2672          0.35354        64.10041
4.85                    0.302167        55.94777       0.06052041          103.36       0.06052016        103.3601        0.3473375        62.83342
4.852                  0.2955034        54.57285       0.06316944        99.37004       0.06316933        99.37023        0.3407205         61.6809
4.854                  0.2889036        53.32706       0.06642336        95.94108       0.06642345        95.94128         0.334197        60.64591
4.856                  0.2827091        52.14851       0.07025904        92.64541       0.07025929        92.64549        0.3280946         59.6685
4.858                   0.276892        50.94341       0.07435011        89.22806        0.0743504          89.228        0.3223484        58.66557
4.86                   0.2710866        49.65081       0.07825288        85.71245       0.07825308        85.71225        0.3165588        57.58913
4.862                  0.2648516         48.2861       0.08166667        82.32388        0.0816667        82.32363        0.3102787        56.46097
4.864                  0.2579776        46.93302       0.08460633        79.32121       0.08460616        79.32099        0.3033278        55.36008
4.866                   0.250634         45.6905       0.08739069         76.8302        0.0873904        76.83008        0.2959219        54.37155
4.868                  0.2432633          44.607       0.09044097        74.75281       0.09044066        74.75284        0.2885358        53.52942
4.87                   0.2362901        43.64418       0.09399653        72.81626       0.09399632        72.81638        0.2815876        52.79066
4.872                   0.229837        42.69876         0.097943        70.74712       0.09794299        70.74726        0.2751565        52.06235
4.874                  0.2236468        41.67345        0.1018857        68.43966        0.1018858        68.43975        0.2689371        51.26687
4.876                  0.2172694        40.54724        0.1054102         65.9952        0.1054104        65.99522        0.2624604        50.39887
4.878                  0.2103758        39.39415        0.1083452         63.6314        0.1083454        63.63134        0.2554249        49.53261
4.88                   0.2029848        38.33866        0.1108672        61.53813        0.1108673        61.53801        0.2479078        48.77558
4.882                  0.1954535        37.47593        0.1133874        59.75773        0.1133873        59.75762        0.2403177        48.19789
4.884                  0.1882417        36.80532        0.1162816        58.15476        0.1162815         58.1547        0.2331211        47.78229
4.886                  0.1815988        36.22481        0.1196333         56.5047        0.1196331        56.50468        0.2265227        47.43263
4.888                  0.1753943        35.60055        0.1231757        54.64459        0.1231756        54.64462        0.2203279        47.04201