! TOUCHSTONE file generated by CST MICROWAVE STUDIO
! Date and time: Fri Nov 29 14:48:29 2024
! Project name: dual_circularly_polarized_waveguide_antenna.cst
! Parameters = {airCoaxOuterDiameter=3; chamferAngle=45; chamferWidth=24; connectorLength=10; drillingHoleDiameter=4.1; feedLength=60; flareDiameter=130; flareLength=70; gratingDistance=0; gratingGap=1.90274; outletLength=90; polarizerLength=134; probe1Diameter=1.3; probe1Distance=14.068; probe1Length=12.1932; probe2Diameter=1.3; probe2Distance=0; probe2Length=11.967; smaInnerDiameter=1.3; smaOuterDiameter=4.1; transitionCoefficient=1.33; waveguideFeedLength=30; waveguideSide=50; waveguideThickness=3; wireCount=25; wireDiameter=1.17699}
! Header version: 2018
! Port assignment regex: !\s*Touchstone port\s*([0-9]+)\s*=\s*(CST MWS port|CST DS port)\s*([0-9]+|Zmin|Zmax)\s*\(\"(.*)\"\)(\s*mode\s*([0-9]+))?.*
! Touchstone port assignment:
! Touchstone port 1 = CST MWS port 1 ("Input1")
! Touchstone port 2 = CST MWS port 2 ("Input2")
# GHz S MA R 50
4.5                    0.1262649        12.54264        0.5265273        108.7132        0.5265273        108.7132        0.1557988        43.13664
4.502                   0.122656        9.621832         0.526559        107.6741        0.5265596        107.6741        0.1503505        41.51049
4.504                  0.1176628        6.346698        0.5263524        106.8117        0.5263532        106.8117        0.1432802        39.95954
4.506                  0.1116052        3.267963        0.5272122        106.0726        0.5272129        106.0725        0.1355114        38.92284
4.508                   0.105578       0.7455561         0.529619         105.312        0.5296192        105.3119        0.1284616        38.47782
4.51                    0.100808       -1.340486        0.5328749         104.396        0.5328745        104.3959        0.1230753        38.19234
4.512                 0.09787172       -3.620261        0.5355742        103.2937        0.5355735        103.2937        0.1191195        37.36669
4.514                  0.0963297        -6.82994        0.5365463         102.096        0.5365459         102.096        0.1153647         35.5378
4.516                 0.09511012         -11.294        0.5356188         100.953        0.5356188         100.953         0.110485        32.76655
4.518                 0.09327784         -16.774        0.5337111        99.97591        0.5337115        99.97591        0.1039128        29.52949
4.52                  0.09060086       -22.67862        0.5321872        99.16154        0.5321877        99.16147       0.09613812        26.40292
4.522                 0.08768606       -28.39452        0.5318517        98.39102        0.5318517        98.39091       0.08839456        23.66942
4.524                 0.08572086       -33.64305        0.5322701        97.51521        0.5322696        97.51511       0.08188169        20.93364
4.526                 0.08590038        -38.7565         0.531929        96.47142        0.5319281        96.47135       0.07692756        17.06885
4.528                 0.08876588       -44.56484        0.5291618        95.34933         0.529161        95.34934       0.07277658        10.73804
4.53                  0.09390554       -51.81692         0.523263        94.36883        0.5232626        94.36884       0.06826694       0.9769469
4.532                  0.1002302       -60.69753        0.5151662        93.78516        0.5151662        93.78516       0.06277862       -12.76109
4.534                  0.1064901       -70.84842        0.5073101         93.7601        0.5073103        93.76007       0.05677702       -30.82593
4.536                  0.1116546       -81.64807        0.5026707          94.252        0.5026705        94.25195       0.05175611       -53.13924
4.538                   0.115092       -92.43901        0.5033831        95.00068        0.5033825        95.00059       0.04946833       -78.16451
4.54                   0.1166249       -102.6428        0.5097676        95.64753        0.5097668         95.6475       0.05058745       -102.5476
4.542                  0.1165023        -111.815           0.5204        95.91457        0.5203991        95.91458       0.05417067       -123.2842
4.544                  0.1152832       -119.6838        0.5330666        95.70383         0.533066        95.70389       0.05868925       -139.4847
4.546                  0.1136351       -126.1739        0.5458233         95.0709         0.545823        95.07096       0.06307763       -151.6544
4.548                  0.1121021       -131.3848         0.557535        94.13563         0.557535        94.13564       0.06689331       -160.6426
4.55                   0.1109695       -135.5006        0.5678056        93.00701        0.5678055        93.00701       0.07003555       -167.2116
4.552                  0.1103216       -138.6752        0.5765875        91.75531        0.5765871        91.75528       0.07250579       -171.8998
4.554                  0.1102491       -140.9885        0.5838429        90.42458         0.583842        90.42456       0.07438847       -174.9878
4.556                  0.1110165       -142.5193        0.5894815        89.05886        0.5894806        89.05889       0.07598255       -176.5888
4.558                  0.1130054         -143.47        0.5935432        87.71431        0.5935426        87.71438       0.07786341       -176.8675
4.56                   0.1164345       -144.1965        0.5964007        86.44639        0.5964005        86.44646       0.08068181       -176.2532
4.562                   0.121091       -145.0674        0.5987506        85.28197        0.5987506        85.28201       0.08475199       -175.4063
4.564                  0.1263495       -146.2622        0.6013306         84.1998        0.6013306        84.19982       0.08978376       -174.8876
4.566                  0.1315033       -147.6946        0.6045288        83.13919        0.6045287        83.13919        0.0950581       -174.8521
4.568                  0.1361727       -149.1059          0.60817        82.03625        0.6081695        82.03627       0.09991843        -175.055
4.57                   0.1405212       -150.2456        0.6116578        80.86446        0.6116572        80.86449        0.1042061       -175.0961
4.572                  0.1451393       -151.0343        0.6143993        79.65047        0.6143989        79.65053        0.1083686        -174.708
4.574                  0.1506372       -151.6214        0.6162269        78.45486        0.6162268        78.45494        0.1131601       -173.9473
4.576                  0.1571955       -152.2827        0.6175369        77.33035        0.6175371        77.33042         0.119092       -173.1637
4.578                  0.1644124        -153.224        0.6190463        76.28474        0.6190466        76.28478        0.1260314       -172.7375
4.58                   0.1715717       -154.4489        0.6213198        75.27329          0.62132        75.27331        0.1332912       -172.8042
4.582                  0.1781212       -155.7801        0.6243882        74.22743        0.6243881        74.22745        0.1401247       -173.1991
4.584                  0.1840297       -156.9896        0.6277284        73.10058         0.627728         73.1006        0.1462318        -173.607
4.586                  0.1898038       -157.9437        0.6306221        71.89831        0.6306218        71.89838          0.15195       -173.7747
4.588                  0.1961508       -158.6869        0.6326423        70.67281        0.6326424        70.67287        0.1580237       -173.6677
4.59                   0.2034885       -159.4075        0.6339407        69.48648         0.633941        69.48653        0.1650795       -173.4826
4.592                  0.2116469       -160.3017        0.6351439        68.36953        0.6351443        68.36957        0.1731682        -173.495
4.594                  0.2199872       -161.4407        0.6369294        67.29872        0.6369298        67.29873        0.1817297       -173.8564
4.596                  0.2278433        -162.737        0.6395619        66.21236         0.639562        66.21236             0.19       -174.5051
4.598                  0.2349646       -164.0173        0.6427101        65.05211          0.64271        65.05213        0.1975388       -175.2331
4.6                    0.2416742        -165.139        0.6456736        63.80198        0.6456736        63.80201        0.2045161       -175.8329
4.602                  0.2486501       -166.0804        0.6478553        62.49725        0.6478554         62.4973        0.2115909       -176.2284
4.604                  0.2564616       -166.9506        0.6491549        61.19937        0.6491553        61.19942        0.2194537       -176.5177
4.606                  0.2651709       -167.9112        0.6500273        59.95419        0.6500278        59.95423         0.228336        -176.896
4.608                  0.2742885       -169.0634         0.651166        58.76097        0.6511665        58.76098         0.237845       -177.5124
4.61                   0.2831126       -170.3868         0.653027        57.57247        0.6530273        57.57247        0.2472461       -178.3731
4.612                  0.2911984       -171.7644        0.6555117        56.32711        0.6555118        56.32711        0.2559698       -179.3523
4.614                   0.298642       -173.0656        0.6580317        54.99057        0.6580317        54.99058        0.2639844        179.7135
4.616                   0.306004       -174.2302        0.6599028        53.57788        0.6599029        53.57791        0.2718028        178.9199
4.618                  0.3139235       -175.3048        0.6607946        52.14189        0.6607951        52.14193        0.2801243        178.2359
4.62                   0.3226715       -176.4079         0.660937        50.73747        0.6609376         50.7375         0.289341        177.5321
4.622                  0.3319572       -177.6461        0.6609506        49.38499        0.6609512          49.385        0.2992569        176.6749
4.624                  0.3411229       -179.0441        0.6614174        48.05682        0.6614179         48.0568        0.3092214        175.6181
4.626                  0.3495816         179.465        0.6624779        46.69615        0.6624782        46.69614        0.3185725        174.4257
4.628                  0.3571921        177.9896        0.6637299        45.25591        0.6637301        45.25591        0.3270677        173.2213
4.63                   0.3643322        176.6092        0.6644961        43.73029        0.6644962         43.7303        0.3350253        172.1056
4.632                  0.3716297        175.3242        0.6642698        42.15785        0.6642701        42.15787        0.3430914        171.0942
4.634                  0.3795233        174.0598        0.6630388        40.59562        0.6630394        40.59563        0.3517837        170.1117
4.636                  0.3879498         172.719        0.6612786         39.0817        0.6612792        39.08169        0.3611209        169.0481
4.638                  0.3963773        171.2501        0.6596219        37.61051        0.6596223        37.61049        0.3705994         167.836
4.64                   0.4041552        169.6781        0.6584259        36.13699        0.6584262        36.13695        0.3795295        166.4937
4.642                  0.4109336        168.0849        0.6575276        34.60759        0.6575276        34.60756        0.3874856        165.1079
4.644                  0.4168745        166.5552         0.656353        32.99699        0.6563529        32.99697        0.3945681        163.7755
4.646                  0.4225256        165.1233        0.6543003        31.32504        0.6543004        31.32505        0.4013159        162.5424
4.648                  0.4284392        163.7537        0.6511348        29.64374        0.6511351        29.64374        0.4083266        161.3772
4.65                   0.4347873        162.3681        0.6471355        28.00341        0.6471358         28.0034        0.4158361        160.1968
4.652                  0.4412361        160.9008         0.642903        26.42024        0.6429033        26.42021        0.4235476        158.9256
4.654                  0.4471683        159.3437        0.6389556        24.86584        0.6389557         24.8658        0.4308297        157.5483
4.656                  0.4520915        157.7503        0.6353831        23.28664        0.6353829         23.2866        0.4371365         156.118
4.658                  0.4559564        156.2006        0.6317907        21.64051        0.6317904        21.64051        0.4423629        154.7204
4.66                   0.4591815        154.7507        0.6275695        19.92554        0.6275693        19.92554        0.4469034        153.4195
4.662                  0.4623707        153.3985        0.6223046        18.18143        0.6223046        18.18145        0.4513827        152.2183
4.664                  0.4659081        152.0877        0.6160469        16.46395        0.6160471        16.46395        0.4562311        151.0601
4.666                  0.4697019        150.7491        0.6092759        14.80859        0.6092762        14.80853        0.4613949        149.8705
4.668                  0.4732582        149.3489         0.602579        13.20715         0.602579        13.20713        0.4663823        148.6099
4.67                   0.4760299        147.9128        0.5962593        11.61312        0.5962591        11.61307        0.4706117         147.301
4.672                  0.4777965        146.5088        0.5901349        9.972677        0.5901345        9.972654        0.4738159        146.0132
4.674                  0.4788272        145.2037        0.5836644        8.261801         0.583664        8.261801        0.4762337        144.8177
4.676                  0.4797203        144.0204          0.57631        6.502949        0.5763097        6.502966        0.4784676        143.7418
4.678                  0.4810251        142.9241        0.5678889        4.751316        0.5678888        4.751337        0.4810977        142.7521
4.68                   0.4828972        141.8467        0.5586869        3.059995        0.5586869        3.060003        0.4843133        141.7787
4.682                  0.4850277        140.7342        0.5492614        1.446234        0.5492614        1.446224        0.4878163        140.7639
4.684                  0.4868963        139.5832        0.5400661      -0.1192597         0.540066      -0.1192785        0.4910647         139.701
4.686                  0.4881654        138.4406        0.5311473       -1.691358         0.531147       -1.691368        0.4936823         138.636
4.688                  0.4889459        137.3694        0.5221178       -3.310691        0.5221174        -3.31068        0.4957466        137.6338
4.69                   0.4897571        136.4028        0.5124265       -4.972125        0.5124262       -4.972091        0.4977688         136.731
4.692                  0.4912059         135.518        0.5017386       -6.622952        0.5017386       -6.622909        0.5003738        135.9076
4.694                  0.4935971        134.6463        0.4901744       -8.191754        0.4901745       -8.191721        0.5038944        135.0963
4.696                  0.4967434        133.7158        0.4782542       -9.629925        0.4782544       -9.629914        0.5081595        134.2248
4.698                   0.500108        132.6947        0.4665879       -10.94004         0.466588       -10.94004        0.5126239        133.2596
4.7                    0.5031707        131.6049        0.4555111       -12.17131         0.455511       -12.17131          0.51674        132.2221
4.702                  0.5057604           130.5        0.4449127       -13.38261        0.4449124        -13.3826        0.5203092        131.1665
4.704                  0.5081319        129.4226        0.4343728       -14.59762        0.4343726       -14.59758         0.523578        130.1383
4.706                  0.5107458        128.3728        0.4235136       -15.78413        0.4235135       -15.78407        0.5270236        129.1405
4.708                  0.5139021        127.3054        0.4123168       -16.87261         0.412317       -16.87256        0.5309775        128.1307
4.71                   0.5174834        126.1614        0.4011951       -17.80285        0.4011954       -17.80282         0.535349        127.0502
4.712                  0.5209876        124.9083        0.3907636       -18.56903        0.3907638       -18.56903        0.5396426        125.8653
4.714                  0.5238246        123.5628        0.3814596       -19.23188        0.3814596       -19.23189        0.5432537        124.5908
4.716                  0.5256697        122.1807        0.3732683       -19.88472        0.3732683       -19.88472        0.5458369        123.2811
4.718                  0.5266421        120.8227        0.3657511       -20.59443         0.365751       -20.59441        0.5475012        121.9966
4.72                   0.5271953         119.518         0.358357       -21.36027         0.358357       -21.36022        0.5487096        120.7677
4.722                  0.5277962        118.2497        0.3507965       -22.12023        0.3507967       -22.12018        0.5499531         119.579
4.724                  0.5286041        116.9699        0.3432216       -22.79987        0.3432219       -22.79984        0.5514137        118.3829
4.726                  0.5293675         115.636        0.3360959       -23.37062        0.3360962       -23.37063        0.5528474        117.1366
4.728                  0.5296077        114.2425        0.3298469        -23.8781        0.3298471       -23.87813        0.5537635        115.8327
4.73                   0.5289546        112.8264        0.3245395       -24.41739        0.3245395       -24.41741        0.5537714        114.5066
4.732                  0.5274083        111.4441        0.3198041       -25.06994         0.319804       -25.06994         0.552857        113.2136
4.734                  0.5253533        110.1356        0.3150718       -25.84837        0.3150717       -25.84834        0.5514065        111.9936
4.736                  0.5233157         108.899        0.3099438       -26.68959         0.309944       -26.68954        0.5499622        110.8456
4.738                  0.5216257        107.6921         0.304437       -27.49922        0.3044373       -27.49919        0.5488724        109.7286
4.74                   0.5202108        106.4614        0.2989463       -28.21691        0.2989466       -28.21692        0.5480718          108.59
4.742                   0.518665        105.1789        0.2939534       -28.86021        0.2939536       -28.86025        0.5471456        107.4018
4.744                  0.5165411        103.8611        0.2896775       -29.51536        0.2896774        -29.5154        0.5456294        106.1791
4.746                  0.5136659        102.5568        0.2859109       -30.27778        0.2859107       -30.27779        0.5433364        104.9695
4.748                  0.5102651        101.3146        0.2821579       -31.18454        0.2821577       -31.18452        0.5404925        103.8205
4.75                   0.5068203        100.1497        0.2779707        -32.1884        0.2779707       -32.18835        0.5375914        102.7474
4.752                  0.5037508        99.03261        0.2732446       -33.18982        0.2732448       -33.18978         0.535068        101.7217
4.754                  0.5011372        97.90839        0.2682773       -34.10359        0.2682776       -34.10359        0.5330096        100.6901
4.756                  0.4986754        96.73373        0.2635582       -34.91761        0.2635584       -34.91765         0.531105        99.61054
4.758                  0.4958941        95.50611        0.2594276       -35.70414        0.2594276       -35.70419        0.5288683        98.48049
4.76                    0.492481        94.26455        0.2558386       -36.57141        0.2558385       -36.57144        0.5259752        97.33774
4.762                  0.4884951        93.06281        0.2523908       -37.58768        0.2523907       -37.58768        0.5224853        96.23419
4.764                  0.4843288        91.93261        0.2486088       -38.73371        0.2486088       -38.73367        0.5188021        95.20038
4.766                  0.4804431        90.86125        0.2442633       -39.91597        0.2442634       -39.91593        0.5154009        94.22379
4.768                  0.4770563        89.79894        0.2395191       -41.02916        0.2395194       -41.02915        0.5125055        93.25644
4.77                   0.4739984        88.69234        0.2348192       -42.02748        0.2348194       -42.02751        0.5099391        92.24726
4.772                  0.4708333        87.52078        0.2305811       -42.95922        0.2305812       -42.95927        0.5072507        91.17698
4.774                   0.467159         86.3095        0.2269101        -43.9372          0.22691       -43.93725        0.5040277        90.07046
4.776                  0.4628804        85.11224        0.2235279       -45.06148        0.2235277       -45.06149        0.5001755        88.97917
4.778                  0.4582703        83.97438        0.2199694       -46.34988        0.2199693       -46.34985        0.4959793        87.94615
4.78                   0.4537833        82.90153        0.2159002       -47.72666        0.2159002       -47.72661        0.4919083         86.9759
4.782                   0.449746         81.8546        0.2113363       -49.07343        0.2113365       -49.07342        0.4882946        86.03032
4.784                  0.4461343        80.77526        0.2066286       -50.30827        0.2066288        -50.3083        0.4851058        85.05425
4.786                   0.442593        79.62598        0.2022246       -51.44406        0.2022247       -51.44413        0.4819704          84.013
4.788                  0.4386814        78.41505        0.1983643       -52.58559        0.1983643       -52.58567        0.4784353        82.91582
4.79                   0.4341715        77.19044        0.1949171       -53.86071        0.1949169       -53.86075        0.4742734          81.809
4.792                  0.4291983         76.0071         0.191476       -55.33281        0.1914758        -55.3328        0.4696336         80.7441
4.794                  0.4241644        74.88935        0.1876384       -56.95881        0.1876384       -56.95877        0.4649358        79.74267
4.796                  0.4194646        73.81312        0.1832727       -58.61941        0.1832728       -58.61938        0.4605816        78.78044
4.798                  0.4152151        72.72103        0.1785995       -60.19813        0.1785997       -60.19815        0.4566782        77.80301
4.8                    0.4111753         71.5612        0.1740424       -61.66129        0.1740425       -61.66136        0.4529651         76.7628
4.802                  0.4069142        70.32238        0.1699447       -63.08815        0.1699447       -63.08824        0.4489953         75.6516
4.804                  0.4021031        69.04129        0.1663385       -64.62442        0.1663384       -64.62449        0.4444391        74.50567
4.806                  0.3967334        67.77731        0.1629277       -66.38575        0.1629275       -66.38576        0.4393036        73.38081
4.808                  0.3911167        66.57239         0.159295       -68.38152        0.1592948       -68.38149         0.433922         72.3145
4.81                   0.3856705        65.42146        0.1551804       -70.51216        0.1551804        -70.5121        0.4287225        71.29942
4.812                  0.3806313        64.27412        0.1506466       -72.63633        0.1506468        -72.6363        0.4239331        70.28718
4.814                   0.375893        63.06796        0.1460335       -74.66533        0.1460337       -74.66538        0.4194238        69.22069
4.816                    0.37108        61.77086        0.1417368       -76.62995        0.1417368       -76.63004        0.4147966        68.07325
4.818                  0.3658028        60.40241        0.1379498         -78.673        0.1379496       -78.67311        0.4096563        66.86648
4.82                   0.3599166        59.02042        0.1345409       -80.96275        0.1345406        -80.9628        0.4038742        65.65545
4.822                  0.3536121        57.68192        0.1311529       -83.58595        0.1311527       -83.58593        0.3976673        64.49145
4.824                  0.3472811        56.40395        0.1274466       -86.49814        0.1274465       -86.49806        0.3914459        63.38669
4.826                  0.3412478        55.14982         0.123319       -89.55997        0.1233191        -89.5599        0.3855285        62.30424
4.828                  0.3355457        53.85186        0.1189655       -92.63073        0.1189656       -92.63073        0.3799213        61.18194
4.83                   0.3298943        52.45659         0.114759       -95.66611        0.1147591       -95.66617        0.3743122         59.9745
4.832                  0.3238891        50.96058        0.1110235        -98.7642        0.1110235       -98.76431         0.368282        58.68438
4.834                  0.3172703         49.4124        0.1078411       -102.1213        0.1078409       -102.1214        0.3615839        57.36014
4.836                  0.3100886        47.88004        0.1050218       -105.9173        0.1050215       -105.9173        0.3543008        56.06401
4.838                  0.3026635        46.40493        0.1022508       -110.2112        0.1022506       -110.2111        0.3467805        54.82989
4.84                   0.2953625        44.97166       0.09930372       -114.9188       0.09930362       -114.9187        0.3393927        53.63866
4.842                  0.2883489         43.5145       0.09619216       -119.8748        0.0961922       -119.8747        0.3322719        52.42886
4.844                  0.2814679        41.95926       0.09316693       -124.9358       0.09316706       -124.9358        0.3252205        51.13735
4.846                  0.2743502        40.27223       0.09059132       -130.0714        0.0905914       -130.0715        0.3178398        49.74252
4.848                  0.2666556        38.48198       0.08875751       -135.3908       0.08875745       -135.3909        0.3097942         48.2794
4.85                   0.2582908        36.66011       0.08775059       -141.0764       0.08775042       -141.0765        0.3010258        46.81733
4.852                  0.2494597        34.87339       0.08744047       -147.2607       0.08744023       -147.2607         0.291781        45.41457
4.854                  0.2405187        33.13648       0.08759638       -153.9308       0.08759618       -153.9307        0.2824335        44.07816
4.856                  0.2317314        31.39562       0.08804223       -160.9234       0.08804217       -160.9232        0.2732226        42.75586
4.858                  0.2230858         29.5571       0.08876431       -167.9966       0.08876439       -167.9964        0.2640807        41.36879
4.86                   0.2142975        27.54477       0.08992767       -174.9342       0.08992785       -174.9341        0.2546713        39.86488
4.862                  0.2049935        25.34693        0.0918005        178.3682       0.09180068        178.3681        0.2446069        38.25618
4.864                  0.1949471        23.02108       0.09461895        171.8761       0.09461903         171.876        0.2336938          36.615
4.866                  0.1842085        20.65376       0.09845672        165.4682       0.09845665        165.4681        0.2220435        35.03149
4.868                  0.1730546        18.29868         0.103174        159.0355        0.1031738        159.0354        0.2099797        33.55791
4.87                   0.1617932        15.92746        0.1084793        152.5598        0.1084791        152.5598        0.1978058        32.17362
4.872                  0.1505493        13.42456        0.1140687        146.1237        0.1140686        146.1238        0.1855823        30.79746
4.874                  0.1391723        10.63486        0.1197648        139.8592        0.1197649        139.8593         0.173069        29.34734
4.876                  0.1273278        7.434124        0.1255848        133.8739        0.1255849         133.874        0.1598715        27.81207
4.878                  0.1147055        3.771494        0.1317001        128.1924        0.1317004        128.1923        0.1456905        26.29197
4.88                    0.101201      -0.3493635        0.1383043        122.7407        0.1383045        122.7406        0.1305063        24.98972
4.882                 0.08696659       -4.954232        0.1454558        117.3849        0.1454558        117.3848        0.1145909        24.16725
4.884                 0.07231956       -10.24557        0.1529922        112.0004        0.1529921        112.0003       0.09834877        24.10846
4.886                 0.05759492       -16.85311        0.1605704        106.5298        0.1605703        106.5298       0.08210123        25.15642
4.888                 0.04311006       -26.40584        0.1678061        100.9966         0.167806        100.9966       0.06599421        27.95512