! TOUCHSTONE file generated by CST MICROWAVE STUDIO
! Date and time: Fri Nov 29 14:48:28 2024
! Project name: dual_circularly_polarized_waveguide_antenna.cst
! Parameters = {airCoaxOuterDiameter=3; chamferAngle=45; chamferWidth=24; connectorLength=10; drillingHoleDiameter=4.1; feedLength=60; flareDiameter=130; flareLength=70; gratingDistance=0; gratingGap=1.90274; outletLength=45; polarizerLength=134; probe1Diameter=1.3; probe1Distance=14.068; probe1Length=12.1932; probe2Diameter=1.3; probe2Distance=0; probe2Length=11.967; smaInnerDiameter=1.3; smaOuterDiameter=4.1; transitionCoefficient=1.33; waveguideFeedLength=30; waveguideSide=50; waveguideThickness=3; wireCount=25; wireDiameter=1.17699}
! Header version: 2018
! Port assignment regex: !\s*Touchstone port\s*([0-9]+)\s*=\s*(CST MWS port|CST DS port)\s*([0-9]+|Zmin|Zmax)\s*\(\"(.*)\"\)(\s*mode\s*([0-9]+))?.*
! Touchstone port assignment:
! Touchstone port 1 = CST MWS port 1 ("Input1")
! Touchstone port 2 = CST MWS port 2 ("Input2")
# GHz S MA R 50
4.5                     0.116006        14.13848        0.5282873        110.0166        0.5282884        110.0166        0.1471482        45.94864
4.502                  0.1114683        12.12778        0.5303512        109.0667         0.530352        109.0667        0.1418355        45.30695
4.504                  0.1066412        9.754373        0.5319734        108.1601        0.5319742        108.1601        0.1359601        44.56567
4.506                  0.1013651        7.183075        0.5336057        107.3133        0.5336066        107.3134        0.1295599        43.92234
4.508                 0.09581755        4.611652        0.5356631        106.5008        0.5356643        106.5009        0.1230208        43.52412
4.51                  0.09040161        2.133776        0.5382424        105.6727         0.538244        105.6728        0.1168125        43.35879
4.512                  0.0854989      -0.3521297        0.5410612        104.7897        0.5410627        104.7897        0.1111605        43.24376
4.514                 0.08123965       -3.116431         0.543657         103.849        0.5436581         103.849        0.1058873        42.94422
4.516                 0.07744576       -6.447968        0.5457045        102.8854        0.5457053        102.8853        0.1005447        42.34273
4.518                 0.07378331       -10.48566        0.5472334        101.9464         0.547234        101.9464       0.09473293        41.52785
4.52                  0.07000264       -15.15577         0.548603        101.0607        0.5486037        101.0607       0.08836849        40.74507
4.522                 0.06610295       -20.23815        0.5502557        100.2184        0.5502565        100.2185        0.0817323        40.24779
4.524                 0.06234252       -25.50458         0.552415        99.37873         0.552416        99.37872       0.07527779        40.12304
4.526                 0.05911232       -30.86176        0.5549357        98.49786        0.5549368        98.49782       0.06931662        40.19315
4.528                 0.05674746       -36.42385        0.5574089        97.55911        0.5574098        97.55903       0.06379351        40.09898
4.53                  0.05537812       -42.44109        0.5594442        96.58311        0.5594447        96.58303       0.05832851        39.54422
4.532                 0.05490378        -49.1021        0.5609325        95.61284        0.5609327        95.61278       0.05249484        38.51065
4.534                 0.05509232       -56.35763        0.5621155         94.6842        0.5621157        94.68417       0.04610893        37.28962
4.536                 0.05572445       -63.89723        0.5634169        93.80185        0.5634171        93.80185       0.03933821        36.34364
4.538                 0.05670406       -71.27015        0.5651514        92.93635        0.5651519        92.93635       0.03258371        36.06179
4.54                  0.05810156       -78.06457        0.5673105        92.04455        0.5673111        92.04452       0.02621116        36.44945
4.542                 0.06011949       -84.06714        0.5695716        91.09921        0.5695721        91.09918       0.02028492        36.88351
4.544                 0.06297922       -89.33345         0.571521        90.10691        0.5715212        90.10686       0.01451105        36.09807
4.546                 0.06676905        -94.1138        0.5729332        89.10252        0.5729332        89.10247      0.008482404        31.56301
4.548                 0.07134962       -98.66658        0.5739179        88.12505        0.5739178        88.12503      0.002311067       -1.319912
4.55                  0.07639664       -103.0954        0.5748384         87.1913        0.5748384         87.1913      0.005575877        -125.276
4.552                 0.08156286       -107.3179        0.5760589        86.28466        0.5760591        86.28466       0.01264545       -136.6897
4.554                 0.08666016       -111.1528        0.5776925        85.36678        0.5776929        85.36678       0.01958791       -141.0776
4.556                 0.09175725       -114.4512        0.5795228        84.40415        0.5795233        84.40412       0.02620799        -143.239
4.558                 0.09713137       -117.2002        0.5811514        83.39068        0.5811516        83.39064       0.03268945       -143.9703
4.56                   0.1030876        -119.547        0.5822645        82.35134        0.5822645         82.3513       0.03943565       -143.8841
4.562                  0.1097495       -121.7202        0.5828374        81.32484        0.5828371        81.32482         0.046784       -143.6655
4.564                  0.1169681       -123.8985        0.5831395        80.33778        0.5831394         80.3378       0.05476528       -143.8115
4.566                  0.1244192       -126.1233         0.583541        79.38744        0.5835411        79.38747       0.06310538       -144.4378
4.568                  0.1318198       -128.3087        0.5842524        78.44455        0.5842527        78.44457       0.07144808       -145.3448
4.57                   0.1391161       -130.3248        0.5851745        77.47463        0.5851749        77.47463       0.07961685       -146.2254
4.572                  0.1465269       -132.0944        0.5859634        76.46281        0.5859638        76.46278       0.08774905       -146.8635
4.574                  0.1544119        -133.649         0.586262        75.42506        0.5862622        75.42501       0.09622419       -147.2451
4.576                  0.1630428       -135.1137         0.585938        74.39886        0.5859379        74.39884        0.1054243       -147.5441
4.578                  0.1724299       -136.6304         0.585171         73.4201        0.5851709        73.42008        0.1154867       -147.9929
4.58                   0.1823258       -138.2769        0.5843347        72.50161        0.5843347        72.50162        0.1262315       -148.7319
4.582                  0.1923997       -140.0374        0.5837546        71.62763        0.5837549        71.62763        0.1373126       -149.7477
4.584                  0.2024549       -141.8358        0.5835119        70.76781        0.5835123        70.76781        0.1484653       -150.9216
4.586                  0.2125436       -143.5997        0.5834263         69.9011        0.5834266        69.90106        0.1596764       -152.1287
4.588                  0.2229065       -145.3131         0.583232        69.03227        0.5832321        69.03223        0.1711694       -153.3196
4.59                   0.2337771       -147.0266        0.5828211        68.18943         0.582821         68.1894        0.1832169        -154.543
4.592                  0.2451802       -148.8226        0.5823839        67.40396        0.5823837        67.40395         0.195908       -155.9011
4.594                  0.2568614       -150.7602        0.5823481         66.6863         0.582348        66.68632        0.2090292       -157.4751
4.596                  0.2683975       -152.8381        0.5831506        66.01379        0.5831506        66.01382        0.2221433       -159.2705
4.598                  0.2794097       -154.9974        0.5849906        65.33949        0.5849909        65.33949        0.2348062       -161.2163
4.6                    0.2897442       -157.1556        0.5877296        64.61641        0.5877299        64.61641        0.2467781       -163.2056
4.602                  0.2995143       -159.2488        0.5910005        63.82067        0.5910006        63.82065        0.2581047       -165.1492
4.604                  0.3089848        -161.259        0.5944452        62.95776        0.5944452        62.95773        0.2690288       -167.0113
4.606                  0.3183756       -163.2121         0.597915        62.04976        0.5979148        62.04976        0.2797929       -168.8123
4.608                  0.3277113       -165.1504        0.6015039        61.11347        0.6015038        61.11349        0.2904612       -170.5988
4.61                   0.3368152       -167.0976        0.6054048        60.14503        0.6054049        60.14505        0.3008794        -172.402
4.612                  0.3454478       -169.0409        0.6096969        59.12118        0.6096972         59.1212        0.3107947       -174.2121
4.614                  0.3534925       -170.9387        0.6142154        58.01571        0.6142157        58.01572        0.3200504       -175.9835
4.616                  0.3610629       -172.7483        0.6185988        56.81867        0.6185992        56.81866         0.328722       -177.6634
4.618                  0.3684597       -174.4539        0.6224762        55.54512        0.6224763         55.5451         0.337103       -179.2264
4.62                   0.3760008        -176.079        0.6256687        54.22739        0.6256686        54.22739        0.3455451        179.3086
4.622                  0.3838343       -177.6726        0.6282686         52.8967        0.6282684        52.89671        0.3542535        177.8891
4.624                  0.3918584       -179.2804        0.6305472        51.56593        0.6305473        51.56594        0.3631754        176.4607
4.626                  0.3998037        179.0809        0.6327518        50.22464         0.632752        50.22467        0.3720563        174.9984
4.628                  0.4074207        177.4294        0.6349274        48.84938        0.6349278        48.84939        0.3806256        173.5166
4.63                   0.4146451        175.8005        0.6368814        47.42211        0.6368819         47.4221        0.3887841        172.0537
4.632                  0.4216361        174.2208        0.6383109        45.94431        0.6383112        45.94429        0.3966699        170.6419
4.634                  0.4286621        172.6883        0.6390029        44.43749        0.6390029        44.43747        0.4045621        169.2839
4.636                  0.4359124        171.1729        0.6389732         42.9304        0.6389731         42.9304        0.4126868        167.9495
4.638                  0.4433599        169.6352        0.6384525        41.44155        0.6384526        41.44156        0.4210568        166.5951
4.64                    0.450769         168.052         0.637731        39.96854        0.6377312        39.96856        0.4294547        165.1911
4.642                  0.4578419        166.4292        0.6369649        38.49121        0.6369652        38.49122        0.4375699        163.7395
4.644                  0.4644028        164.7963        0.6360765        36.98646        0.6360768        36.98645        0.4451944          162.27
4.646                  0.4704983         163.186        0.6348112        35.44496        0.6348115        35.44493        0.4523455        160.8187
4.648                  0.4763501        161.6125        0.6329133        33.87827        0.6329134        33.87825        0.4592381         159.404
4.65                   0.4821931        160.0634        0.6302999        32.31218        0.6302999        32.31216        0.4661253        158.0157
4.652                  0.4881053        158.5089        0.6271189        30.77059        0.6271189        30.77059        0.4731148        156.6227
4.654                  0.4939458        156.9222        0.6236544        29.26086        0.6236546        29.26087        0.4800853        155.1948
4.656                  0.4994407         155.298        0.6201429        27.76987        0.6201431        27.76987        0.4867591        153.7233
4.658                  0.5043565        153.6555        0.6166239        26.27378        0.6166243        26.27378        0.4928789        152.2261
4.66                   0.5086462        152.0256        0.6129244         24.7551        0.6129247        24.75507        0.4983687        150.7358
4.662                  0.5124706        150.4319        0.6087864         23.2151        0.6087866        23.21508         0.503374        149.2789
4.664                   0.516085        148.8756        0.6040501        21.67418        0.6040502        21.67413        0.5081552        147.8591
4.666                  0.5196631        147.3363        0.5987704        20.15887        0.5987704        20.15882        0.5129065        146.4567
4.668                  0.5231794        145.7868        0.5931894        18.68513        0.5931895        18.68507        0.5176216         145.043
4.67                   0.5264265         144.212        0.5875862        17.24828        0.5875864        17.24828        0.5220973        143.6004
4.672                   0.529155        142.6192        0.5821024        15.82656        0.5821027        15.82656        0.5260698        142.1346
4.674                  0.5312405        141.0335        0.5766612        14.39623        0.5766616         14.3962        0.5293908        140.6709
4.676                  0.5327663        139.4816        0.5710346        12.94811        0.5710347        12.94806        0.5321259        139.2375
4.678                  0.5339701        137.9751        0.5650102        11.49425        0.5650103         11.4942        0.5345104        137.8482
4.68                   0.5350872        136.5031        0.5585469        10.06046        0.5585467        10.06042        0.5367922        136.4935
4.682                  0.5361983        135.0407        0.5518121        8.669301         0.551812        8.669278        0.5390701        135.1482
4.684                  0.5371822        133.5657        0.5450821        7.325082         0.545082        7.325069        0.5412315         133.789
4.686                  0.5378042        132.0741        0.5385668         6.01066        0.5385669        6.010646        0.5430358        132.4101
4.688                   0.537881        130.5826        0.5322812        4.698772        0.5322814        4.698744        0.5442833        131.0277
4.69                   0.5374086        129.1174        0.5260481        3.370433        0.5260481         3.37039        0.5449531        129.6686
4.692                  0.5365701        127.6973        0.5196296        2.027843        0.5196294        2.027794        0.5452223        128.3527
4.694                  0.5356193        126.3207        0.5128977       0.6929511        0.5128975       0.6929086        0.5453519          127.08
4.696                  0.5347164        124.9675        0.5059283      -0.6073699        0.5059281      -0.6073959        0.5455166         125.831
4.698                   0.533828        123.6121        0.4989568       -1.859751        0.4989566        -1.85976        0.5456945        124.5797
4.7                    0.5327583        122.2411        0.4922265       -3.074103        0.4922263       -3.074106        0.5456898        123.3116
4.702                   0.531289        120.8616        0.4858312       -4.277769        0.4858311        -4.27778        0.5452736        122.0331
4.704                  0.5293322        119.4969        0.4796596       -5.497535        0.4796595        -5.49756        0.5443445         120.767
4.706                  0.5269945        118.1699        0.4734787       -6.741736        0.4734785       -6.741769        0.5430017         119.537
4.708                  0.5245098        116.8882        0.4670973       -7.994879         0.467097        -7.99491        0.5414822        118.3515
4.71                   0.5220866        115.6386        0.4604996       -9.228443        0.4604992       -9.228459        0.5400058        117.1981
4.712                  0.5197728        114.3954        0.4538578       -10.42067        0.4538574       -10.42066        0.5386314        116.0517
4.714                  0.5174294        113.1381        0.4474182       -11.57222        0.4474179        -11.5722        0.5372236        114.8915
4.716                  0.5148312        111.8648        0.4413371       -12.70698         0.441337       -12.70696        0.5355511        113.7145
4.718                  0.5118233        110.5929        0.4355782       -13.85678        0.4355781       -13.85677        0.5334487         112.538
4.72                   0.5084289        109.3477        0.4299411       -15.04031         0.429941       -15.04032        0.5309324        111.3867
4.722                  0.5048354        108.1447         0.424201       -16.25095        0.4242008       -16.25096        0.5281903        110.2766
4.724                  0.5012702        106.9787        0.4182623       -17.46172         0.418262       -17.46171        0.5254576        109.2033
4.726                  0.4978486        105.8273        0.4122226       -18.64425        0.4122222       -18.64423        0.5228597        108.1449
4.728                  0.4944995        104.6653        0.4063058       -19.78897        0.4063056       -19.78893        0.5203296         107.077
4.73                   0.4910166        103.4822        0.4007102       -20.91304        0.4007101         -20.913        0.5176584        105.9885
4.732                  0.4872021        102.2886        0.3954742       -22.05006        0.3954742       -22.05003        0.5146402        104.8897
4.734                  0.4830006        101.1094        0.3904517        -23.2281        0.3904518       -23.22809        0.5112136        103.8045
4.736                   0.478537        99.96635        0.3854134       -24.45138        0.3854134       -24.45138        0.5075029        102.7544
4.738                  0.4740306        98.86339         0.380202       -25.69814        0.3802018       -25.69813        0.5037332        101.7435
4.74                   0.4696465        97.78352        0.3748365       -26.93631        0.3748363       -26.93629        0.5000776        100.7557
4.742                  0.4653833        96.70017        0.3694968       -28.14628        0.3694967       -28.14622        0.4965389        99.76516
4.744                  0.4610759        95.59516        0.3643993       -29.33575        0.3643993        -29.3357        0.4929501        98.75441
4.746                  0.4565081        94.47146        0.3596491       -30.53637        0.3596493       -30.53634        0.4890892        97.72599
4.748                    0.45156        93.35116        0.3551681       -31.78364        0.3551683       -31.78363        0.4848312        96.70106
4.75                   0.4462868        92.26103        0.3507488       -33.09396        0.3507489       -33.09395        0.4802306        95.70522
4.752                  0.4408792        91.21428        0.3461939       -34.45473        0.3461939       -34.45473         0.475483        94.75109
4.754                  0.4355318        90.20185        0.3414466       -35.83425        0.3414465       -35.83424        0.4707893           93.83
4.756                  0.4303095        89.19851        0.3366244        -37.2045        0.3366243       -37.20447        0.4662178        92.91788
4.758                  0.4251026        88.18061        0.3319354       -38.56197        0.3319354       -38.56193         0.461657        91.99223
4.76                   0.4197025         87.1431        0.3275351        -39.9323        0.3275352       -39.93226        0.4568933        91.04831
4.762                  0.4139444        86.10407         0.323419       -41.35529        0.3234192       -41.35528        0.4517572         90.1031
4.764                  0.4078173        85.09369        0.3194243       -42.85989        0.3194245        -42.8599         0.446238        89.18496
4.766                  0.4014712          84.135        0.3153381       -44.44668        0.3153381       -44.44669        0.4404896        88.31512
4.768                  0.3951133        83.22931        0.3110354       -46.08962        0.3110353       -46.08964         0.434725        87.49428
4.77                   0.3888678        82.35635        0.3065563       -47.75577        0.3065562       -47.75577        0.4290707        86.70293
4.772                  0.3826925        81.48973        0.3020717        -49.4297        0.3020717       -49.42967         0.423482        85.91617
4.774                  0.3764124        80.61734        0.2977623       -51.12688        0.2977624       -51.12686        0.4177783        85.12287
4.776                  0.3698453        79.75282        0.2936928       -52.88668         0.293693       -52.88666        0.4117726        84.33554
4.778                  0.3629331        78.92943         0.289764       -54.74907        0.2897642       -54.74907        0.4054062        83.58458
4.78                    0.355789        78.18101        0.2857741       -56.73106        0.2857742       -56.73108        0.3987961        82.90021
4.782                  0.3486305        77.52198        0.2815457       -58.81857        0.2815457       -58.81859        0.3921641        82.29423
4.784                  0.3416429        76.94051        0.2770326       -60.97897        0.2770325       -60.97897        0.3856959        81.75433
4.786                  0.3348683           76.41        0.2723379       -63.18565        0.2723378       -63.18563        0.3794291        81.25533
4.788                  0.3281982        75.91199        0.2676347       -65.43907        0.2676347       -65.43904        0.3732469        80.78006
4.79                   0.3214756        75.45419        0.2630432       -67.77044        0.2630434        -67.7704        0.3669848        80.33533
4.792                  0.3146343        75.07056        0.2585436       -70.22531        0.2585438        -70.2253         0.360573        79.95104
4.794                  0.3077807         74.8024        0.2539822       -72.83749        0.2539823       -72.83749        0.3541173        79.66284
4.796                  0.3011591        74.67273        0.2491638       -75.61063        0.2491639       -75.61063        0.3478618        79.48952
4.798                  0.2950244        74.67116        0.2439682       -78.51911        0.2439682       -78.51912        0.3420578        79.42036
4.8                    0.2895088        74.76051        0.2384155       -81.52737        0.2384154       -81.52737        0.3368297        79.42213
4.802                  0.2845772        74.90167        0.2326435       -84.61513        0.2326435       -84.61509        0.3321321        79.46126
4.804                  0.2801015        75.07847        0.2268146       -87.79331        0.2268147       -87.79325        0.3278281        79.52524
4.806                  0.2759988        75.30331        0.2210121       -91.10068        0.2210123       -91.10064        0.3238301        79.62684
4.808                  0.2723312         75.5988        0.2151918       -94.58239         0.215192       -94.58239        0.3201992        79.78766
4.81                   0.2692918          75.968        0.2092185       -98.26404        0.2092187       -98.26407        0.3171321        80.01271
4.812                  0.2670846         76.3755        0.2029604       -102.1374        0.2029605       -102.1375        0.3148389        80.27425
4.814                  0.2657816        76.75473        0.1963824       -106.1669        0.1963824       -106.1669        0.3134001        80.51809
4.816                  0.2652599        77.03791        0.1895808       -110.3116        0.1895808       -110.3116         0.312702        80.68856
4.818                  0.2652645        77.18691        0.1827443        -114.552        0.1827443        -114.552        0.3124991        80.75473
4.82                   0.2655474        77.20287         0.176065        -118.904        0.1760651        -118.904        0.3125529        80.71857
4.822                  0.2659847        77.10937         0.169654        -123.413        0.1696542        -123.413        0.3127505        80.60088
4.824                  0.2665916        76.92345        0.1635114       -128.1291        0.1635116       -128.1291        0.3131204        80.41649
4.826                  0.2674325        76.63585        0.1575645       -133.0785        0.1575647       -133.0785        0.3137416        80.15683
4.828                  0.2684965        76.21367        0.1517499       -138.2475          0.15175       -138.2476        0.3146156        79.79211
4.83                   0.2696281        75.62303        0.1460855       -143.5898        0.1460855       -143.5898        0.3155929        79.29089
4.832                  0.2705646        74.85438        0.1406942       -149.0511        0.1406942       -149.0511        0.3164104        78.64271
4.834                  0.2710508        73.93204        0.1357659       -154.5981        0.1357659       -154.5981        0.3168082        77.86714
4.836                  0.2709517        72.90276        0.1314823       -160.2356        0.1314824       -160.2356         0.316648        77.00394
4.838                  0.2702897        71.81107         0.127945       -165.9985        0.1279451       -165.9985        0.3159527        76.09143
4.84                   0.2691837        70.67773        0.1251455       -171.9223        0.1251457       -171.9223        0.3148433        75.14713
4.842                  0.2677327        69.49457        0.1229945        -178.009        0.1229947       -178.0091        0.3134194        74.16311
4.844                  0.2659229        68.23857        0.1213874        175.7902        0.1213874        175.7901        0.3116624        73.11877
4.846                  0.2636187        66.89586        0.1202709        169.5648        0.1202709        169.5647        0.3094274        72.00224
4.848                   0.260642        65.47917        0.1196743        163.4122        0.1196743        163.4122        0.3065275        70.82569
4.85                   0.2568833        64.02779        0.1196906        157.4011        0.1196906        157.4011        0.3028492        69.62473
4.852                  0.2523696        62.59001        0.1204177         151.549        0.1204178        151.5491        0.2984224        68.44238
4.854                  0.2472442        61.20021        0.1218908        145.8284        0.1218909        145.8284        0.2933974        67.30837
4.856                  0.2416738        59.86445        0.1240425         140.197        0.1240426         140.197        0.2879442        66.22713
4.858                  0.2357417        58.56517        0.1267178        134.6341         0.126718         134.634        0.2821435        65.18296
4.86                   0.2294016        57.28313        0.1297356        129.1583        0.1297356        129.1582        0.2759415        64.16008
4.862                  0.2225223        56.02311        0.1329623        123.8184        0.1329622        123.8184        0.2692014        63.16474
4.864                  0.2149948        54.82676        0.1363585        118.6646        0.1363584        118.6646        0.2618169        62.23455
4.866                  0.2068293        53.76423        0.1399699        113.7169        0.1399699        113.7169        0.2538118        61.42896
4.868                  0.1981818        52.90979        0.1438678        108.9503        0.1438679        108.9503        0.2453598        60.80667
4.87                   0.1892916        52.31619          0.14807        104.3046        0.1480701        104.3046        0.2367125        60.40385
4.872                  0.1803731        52.00544        0.1524911        99.71417        0.1524912        99.71417        0.2280848        60.22854
4.874                  0.1715373        51.98513        0.1569526        95.13951        0.1569527         95.1395        0.2195779        60.27667
4.876                  0.1628027         52.2828        0.1612481        90.58148        0.1612482        90.58147        0.2111975        60.56038
4.878                  0.1541946        52.97427        0.1652229        86.07231        0.1652228        86.07228        0.2029605        61.12732
4.88                     0.14587        54.18071        0.1688225        81.65065        0.1688224        81.65066         0.195016        62.05308
4.882                  0.1381774        56.02326        0.1720816        77.33575        0.1720815        77.33577        0.1876909        63.40435
4.884                  0.1315978        58.54998        0.1750604        73.11496        0.1750604        73.11498        0.1814174        65.19108
4.886                  0.1265825        61.67687        0.1777666        68.95118        0.1777667        68.95121        0.1765753        67.33958
4.888                  0.1233861        65.19305        0.1801113        64.80607        0.1801115        64.80607        0.1733517        69.71089