! TOUCHSTONE file generated by CST MICROWAVE STUDIO
! Date and time: Sun Dec  1 17:26:32 2024
! Project name: test_tuning.cst
! Parameters = {airCoaxOuterDiameter=3; chamferAngle=45; chamferWidth=8; connectorLength=10; drillingHoleDiameter=4.1; feedLength=60; flareDiameter=130; flareLength=70; gratingDistance=0; gratingGap=1.90274; outletLength=30; polarizerLength=134; probe1Diameter=1.3; probe1Distance=14; probe1Length=12; probe2Diameter=1.3; probe2Distance=0; probe2Length=12; probeLength=12; smaInnerDiameter=1.3; smaOuterDiameter=4.1; transitionCoefficient=1.33; waveguideFeedLength=30; waveguideSide=50; waveguideThickness=3; wireCount=25; wireDiameter=1.17699}
! Header version: 2024
! Port assignment regex: !\s*Touchstone port\s*([0-9]+)\s*=\s*(CST MWS port|CST DES external port|CST DES block port)\s*(.+)\s* \(\"(.*)\"\)(\s*mode\s*([0-9]+))?.*
! Touchstone port assignment:
! Touchstone port 1 = CST MWS port 1 ("Input1")
! Touchstone port 2 = CST MWS port 2 ("Input2")
# GHz S MA R 50
4.6                    0.3760125        95.54586        0.1338116        79.22457        0.1338116        79.22471        0.3760136        95.54593
4.6014                 0.3746752        94.90616        0.1348671        79.56395        0.1348671        79.56408        0.3746763        94.90622
4.6028                  0.373231        94.27234        0.1359253        79.86372        0.1359253        79.86386         0.373232         94.2724
4.6042                 0.3716823        93.64487        0.1369797        80.12665        0.1369798        80.12679        0.3716833        93.64495
4.6056                 0.3700321        93.02426        0.1380244         80.3556        0.1380245        80.35572        0.3700331        93.02433
4.607                  0.3682833        92.41099        0.1390544         80.5535        0.1390544        80.55363        0.3682842        92.41106
4.6084                 0.3664391        91.80557        0.1400652         80.7233        0.1400653        80.72344        0.3664401        91.80564
4.6098                 0.3645029        91.20849        0.1410534        80.86794        0.1410535        80.86806        0.3645038        91.20857
4.6112                 0.3624783        90.62027        0.1420161        80.99028        0.1420162        80.99039        0.3624792        90.62035
4.6126                 0.3603691        90.04141        0.1429513        81.09316        0.1429514        81.09327          0.36037        90.04147
4.614                  0.3581792         89.4724        0.1438574        81.17931        0.1438576        81.17941        0.3581801        89.47246
4.6154                 0.3559128        88.91371        0.1447339        81.25139         0.144734         81.2515        0.3559136        88.91378
4.6168                 0.3535741        88.36585        0.1455805        81.31193        0.1455807        81.31204         0.353575        88.36592
4.6182                 0.3511678        87.82929        0.1463978        81.36331         0.146398         81.3634        0.3511686        87.82934
4.6196                 0.3486984        87.30446        0.1471869        81.40779        0.1471871         81.4079        0.3486991        87.30452
4.621                  0.3461705        86.79183        0.1479495        81.44752        0.1479497         81.4476        0.3461713        86.79188
4.6224                 0.3435893        86.29179        0.1486876        81.48441        0.1486878        81.48449        0.3435901        86.29184
4.6238                 0.3409597        85.80474        0.1494041        81.52025        0.1494043        81.52032        0.3409605         85.8048
4.6252                 0.3382869        85.33107         0.150102        81.55665        0.1501022        81.55672        0.3382876        85.33112
4.6266                 0.3355761        84.87111        0.1507847        81.59503         0.150785         81.5951        0.3355768        84.87116
4.628                  0.3328325        84.42512        0.1514563        81.63661        0.1514566        81.63667        0.3328332        84.42519
4.6294                 0.3300616        83.99343         0.152121        81.68241        0.1521212        81.68247        0.3300622        83.99348
4.6308                 0.3272685        83.57622        0.1527833        81.73328        0.1527835        81.73332        0.3272692        83.57626
4.6322                 0.3244588        83.17364        0.1534479        81.78978        0.1534481        81.78981        0.3244595        83.17371
4.6336                 0.3216377        82.78588        0.1541197        81.85232          0.15412        81.85235        0.3216383        82.78593
4.635                  0.3188105        82.41296         0.154804        81.92107        0.1548042        81.92108        0.3188111        82.41301
4.6364                 0.3159824        82.05491        0.1555057        81.99597         0.155506          81.996         0.315983        82.05496
4.6378                 0.3131586        81.71166        0.1562302        82.07677        0.1562305        82.07679        0.3131592        81.71171
4.6392                 0.3103438        81.38313        0.1569826        82.16297        0.1569829        82.16298        0.3103444        81.38317
4.6406                  0.307543        81.06909        0.1577681        82.25388        0.1577683        82.25391        0.3075436        81.06914
4.642                  0.3047607        80.76932        0.1585914        82.34861        0.1585916        82.34861        0.3047613        80.76937
4.6434                 0.3020013         80.4835        0.1594575        82.44607        0.1594577        82.44606        0.3020018        80.48355
4.6448                 0.2992688        80.21121        0.1603708        82.54497         0.160371        82.54497        0.2992694        80.21126
4.6462                 0.2965672        79.95198        0.1613356        82.64391        0.1613358        82.64388        0.2965677        79.95203
4.6476                 0.2938999        79.70529        0.1623556        82.74129        0.1623558        82.74127        0.2939004        79.70533
4.649                  0.2912701         79.4705        0.1634344        82.83544        0.1634345        82.83541        0.2912705        79.47054
4.6504                 0.2886805        79.24692        0.1645749        82.92455        0.1645751        82.92452        0.2886809        79.24697
4.6518                 0.2861336        79.03383        0.1657798        83.00676          0.16578        83.00672         0.286134        79.03387
4.6532                 0.2836314        78.83037        0.1670511        83.08014        0.1670512         83.0801        0.2836318         78.8304
4.6546                 0.2811753        78.63568        0.1683902        83.14274        0.1683904         83.1427        0.2811757        78.63571
4.656                  0.2787666        78.44881        0.1697982        83.19263        0.1697984        83.19258         0.278767        78.44886
4.6574                 0.2764059        78.26881        0.1712755        83.22787        0.1712756        83.22782        0.2764062        78.26885
4.6588                 0.2740933        78.09464         0.172822         83.2466         0.172822        83.24656        0.2740936        78.09466
4.6602                 0.2718285        77.92526        0.1744368        83.24701        0.1744369        83.24696        0.2718288        77.92528
4.6616                 0.2696108        77.75957        0.1761187         83.2274        0.1761188        83.22735        0.2696111         77.7596
4.663                  0.2674389        77.59651        0.1778661        83.18615        0.1778661         83.1861        0.2674391        77.59654
4.6644                  0.265311        77.43496        0.1796764        83.12182        0.1796764        83.12176        0.2653113        77.43499
4.6658                 0.2632251        77.27385         0.181547        83.03302         0.181547        83.03297        0.2632253        77.27388
4.6672                 0.2611785        77.11209        0.1834744        82.91857        0.1834744        82.91852        0.2611786        77.11214
4.6686                  0.259168        76.94866        0.1854551        82.77743        0.1854551        82.77738        0.2591682        76.94868
4.67                   0.2571904         76.7825        0.1874848        82.60871        0.1874847        82.60866        0.2571904        76.78253
4.6714                 0.2552416        76.61267         0.189559        82.41165         0.189559        82.41159        0.2552417        76.61272
4.6728                 0.2533177        76.43826         0.191673        82.18567         0.191673        82.18561        0.2533177        76.43832
4.6742                  0.251414        76.25843        0.1938216        81.93034        0.1938216         81.9303         0.251414        76.25848
4.6756                 0.2495257        76.07237        0.1959994         81.6454        0.1959994        81.64537        0.2495258        76.07242
4.677                  0.2476479         75.8794        0.1982009        81.33066        0.1982008        81.33063        0.2476479        75.87947
4.6784                 0.2457753        75.67891        0.2004202        80.98615        0.2004201        80.98611        0.2457753        75.67898
4.6798                 0.2439026        75.47038        0.2026514        80.61195        0.2026512        80.61192        0.2439025        75.47045
4.6812                  0.242024        75.25338        0.2048884        80.20831        0.2048883        80.20827        0.2420239        75.25345
4.6826                  0.240134         75.0276        0.2071252        79.77555        0.2071251        79.77552        0.2401339        75.02767
4.684                  0.2382268        74.79283        0.2093555        79.31409        0.2093554        79.31407        0.2382267        74.79292
4.6854                 0.2362968        74.54895        0.2115733        78.82447        0.2115731        78.82445        0.2362967        74.54907
4.6868                 0.2343383        74.29602        0.2137722         78.3073        0.2137721        78.30727        0.2343382        74.29613
4.6882                 0.2323455        74.03416        0.2159461        77.76321         0.215946        77.76318        0.2323454        74.03426
4.6896                 0.2303131         73.7636        0.2180891        77.19294        0.2180889        77.19293        0.2303129        73.76371
4.691                  0.2282354        73.48474        0.2201949         76.5973        0.2201947        76.59729        0.2282352        73.48488
4.6924                 0.2261073        73.19809        0.2222577        75.97709        0.2222575        75.97709        0.2261072        73.19823
4.6938                 0.2239238        72.90428        0.2242718        75.33321        0.2242716        75.33321        0.2239237        72.90442
4.6952                 0.2216801        72.60404        0.2262314        74.66654        0.2262312        74.66654        0.2216799         72.6042
4.6966                 0.2193715        72.29832         0.228131        73.97803        0.2281309        73.97803        0.2193714        72.29849
4.698                  0.2169939        71.98813        0.2299654        73.26863        0.2299652        73.26863        0.2169937        71.98831
4.6994                 0.2145432        71.67466        0.2317293        72.53932        0.2317291        72.53932        0.2145431        71.67485
4.7008                 0.2120161        71.35922        0.2334177         71.7911        0.2334176        71.79111        0.2120159        71.35941
4.7022                 0.2094091        71.04332         0.235026        71.02496        0.2350258        71.02498         0.209409        71.04352
4.7036                 0.2067196        70.72858        0.2365496        70.24195        0.2365494        70.24195        0.2067195        70.72879
4.705                  0.2039451        70.41683        0.2379841        69.44304        0.2379839        69.44305         0.203945        70.41705
4.7064                 0.2010839        70.11005        0.2393254        68.62931        0.2393253        68.62932        0.2010838        70.11028
4.7078                 0.1981343        69.81045        0.2405698        67.80175        0.2405696        67.80176        0.1981343        69.81069
4.7092                 0.1950956        69.52042        0.2417135        66.96143        0.2417134        66.96145        0.1950956        69.52067
4.7106                 0.1919674        69.24256        0.2427534        66.10938        0.2427532        66.10938        0.1919674        69.24288
4.712                  0.1887499         68.9798        0.2436862         65.2466         0.243686        65.24663        0.1887499        68.98009
4.7134                 0.1854438        68.73524        0.2445092        64.37418         0.244509        64.37421        0.1854439        68.73553
4.7148                 0.1820507        68.51232        0.2452197        63.49316        0.2452196        63.49319        0.1820508        68.51263
4.7162                 0.1785726        68.31479        0.2458157        62.60453        0.2458156        62.60461        0.1785727        68.31508
4.7176                 0.1750125        68.14674        0.2462951        61.70942        0.2462949        61.70944        0.1750126        68.14703
4.719                  0.1713739        68.01262        0.2466561        60.80879         0.246656        60.80882         0.171374        68.01293
4.7204                 0.1676612        67.91736        0.2468974        59.90373        0.2468973        59.90375        0.1676614        67.91771
4.7218                 0.1638799        67.86636        0.2470179        58.99524        0.2470178        58.99527        0.1638802         67.8667
4.7232                 0.1600363        67.86552        0.2470167        58.08444        0.2470166        58.08446        0.1600366        67.86586
4.7246                 0.1561377        67.92125        0.2468932        57.17231        0.2468931        57.17237         0.156138        67.92159
4.726                  0.1521927        68.04062        0.2466474        56.25996        0.2466473        56.26002         0.152193        68.04098
4.7274                 0.1482109        68.23138        0.2462791        55.34845         0.246279        55.34848        0.1482113        68.23171
4.7288                 0.1442036         68.5019        0.2457888        54.43888        0.2457888         54.4389         0.144204        68.50223
4.7302                 0.1401833        68.86134        0.2451772        53.53228        0.2451771        53.53231        0.1401837         68.8617
4.7316                 0.1361645        69.31959        0.2444451        52.62972         0.244445         52.6298        0.1361649        69.31997
4.733                  0.1321632        69.88731        0.2435938         51.7324        0.2435938        51.73244        0.1321637        69.88771
4.7344                 0.1281977        70.57584        0.2426249        50.84135        0.2426249         50.8414        0.1281982        70.57622
4.7358                 0.1242883        71.39704        0.2415402        49.95773        0.2415402        49.95776        0.1242889        71.39741
4.7372                 0.1204577         72.3632        0.2403418        49.08265        0.2403418        49.08267        0.1204584        72.36356
4.7386                 0.1167315         73.4867        0.2390322         48.2173        0.2390322        48.21733        0.1167321        73.48709
4.74                   0.1131374         74.7796         0.237614        47.36275         0.237614        47.36284        0.1131381        74.77997
4.7414                 0.1097062        76.25296        0.2360903        46.52033        0.2360903        46.52038        0.1097069        76.25327
4.7428                 0.1064711        77.91607        0.2344642        45.69115        0.2344643         45.6912        0.1064719        77.91634
4.7442                 0.1034679        79.77538        0.2327395        44.87643        0.2327395        44.87648        0.1034687        79.77564
4.7456                 0.1007342        81.83347        0.2309198        44.07739        0.2309199        44.07747         0.100735        81.83369
4.747                 0.09830839        84.08749        0.2290094        43.29535        0.2290094        43.29538       0.09830921        84.08768
4.7484                0.09622927        86.52801        0.2270125         42.5315        0.2270125        42.53153       0.09623011        86.52818
4.7498                0.09453401        89.13803        0.2249337        41.78713        0.2249338        41.78716       0.09453483        89.13816
4.7512                0.09325663        91.89224         0.222778        41.06356        0.2227781        41.06358       0.09325744        91.89232
4.7526                0.09242616        94.75733        0.2205505         40.3621        0.2205505        40.36216       0.09242695        94.75738
4.754                 0.09206488        97.69309        0.2182565        39.68407        0.2182565         39.6841       0.09206564        97.69305
4.7554                0.09218679        100.6543        0.2159016        39.03079        0.2159017        39.03082       0.09218755        100.6543
4.7568                0.09279682         103.594        0.2134917         38.4036        0.2134918        38.40363       0.09279753        103.5939
4.7582                0.09389037        106.4659        0.2110328        37.80384        0.2110329        37.80387       0.09389103        106.4657
4.7596                0.09545396        109.2276        0.2085312        37.23283        0.2085313        37.23286       0.09545458        109.2275
4.761                 0.09746638        111.8434        0.2059933         36.6919        0.2059934        36.69193       0.09746696        111.8433
4.7624                0.09990012         114.285        0.2034258        36.18236        0.2034259        36.18238       0.09990063        114.2849
4.7638                 0.1027232        116.5325        0.2008355        35.70548        0.2008355        35.70551        0.1027237        116.5324
4.7652                  0.105901        118.5739        0.1982293        35.26251        0.1982293        35.26253        0.1059014        118.5737
4.7666                 0.1093976        120.4039        0.1956143        34.85465        0.1956144        34.85466         0.109398        120.4038
4.768                  0.1131771        122.0235        0.1929979        34.48302         0.192998        34.48304        0.1131774        122.0233
4.7694                 0.1172047        123.4377        0.1903874        34.14871        0.1903875        34.14872         0.117205        123.4376
4.7708                 0.1214472        124.6548        0.1877901        33.85268        0.1877902        33.85269        0.1214474        124.6547
4.7722                 0.1258733        125.6853        0.1852137         33.5958        0.1852137        33.59581        0.1258735        125.6852
4.7736                  0.130454        126.5408        0.1826654        33.37883        0.1826655        33.37883        0.1304542        126.5406
4.775                  0.1351625        127.2333        0.1801531        33.20236        0.1801531        33.20237        0.1351627        127.2332
4.7764                 0.1399744        127.7752        0.1776839        33.06684         0.177684        33.06685        0.1399745        127.7751
4.7778                  0.144867        128.1783        0.1752654        32.97253        0.1752655        32.97253        0.1448672        128.1782
4.7792                   0.14982         128.454        0.1729049        32.91947         0.172905        32.91946        0.1498201        128.4539
4.7806                 0.1548145        128.6128        0.1706094        32.90747        0.1706094        32.90748        0.1548146        128.6128
4.782                  0.1598334        128.6649        0.1683858        32.93613        0.1683858        32.93613        0.1598335        128.6648
4.7834                 0.1648612        128.6193        0.1662407        33.00474        0.1662408        33.00473        0.1648613        128.6193
4.7848                 0.1698834        128.4846        0.1641805        33.11232        0.1641806        33.11231        0.1698835        128.4846
4.7862                  0.174887        128.2684        0.1622112        33.25761        0.1622112         33.2576        0.1748871        128.2684
4.7876                 0.1798599        127.9779        0.1603381        33.43903        0.1603381        33.43901          0.17986        127.9779
4.789                  0.1847911        127.6194        0.1585663         33.6547        0.1585663        33.65469        0.1847911        127.6194
4.7904                 0.1896703        127.1989        0.1569003        33.90244        0.1569003        33.90243        0.1896703        127.1989
4.7918                 0.1944881        126.7216         0.155344        34.17975         0.155344        34.17974        0.1944881        126.7216
4.7932                 0.1992358        126.1924        0.1539006        34.48389        0.1539006        34.48388        0.1992359        126.1924
4.7946                 0.2039055        125.6157        0.1525726        34.81183        0.1525726        34.81182        0.2039056        125.6158
4.796                  0.2084897        124.9956         0.151362        35.16032         0.151362        35.16031        0.2084898        124.9956
4.7974                 0.2129816        124.3356        0.1502696        35.52592        0.1502696        35.52591        0.2129817        124.3357
4.7988                 0.2173749        123.6392         0.149296        35.90504         0.149296        35.90503         0.217375        123.6393
4.8002                 0.2216637        122.9095        0.1484406        36.29399        0.1484406        36.29397        0.2216638        122.9096
4.8016                 0.2258427        122.1492        0.1477022        36.68901        0.1477022          36.689        0.2258428        122.1493
4.803                  0.2299069        121.3609        0.1470789        37.08636        0.1470788        37.08636         0.229907         121.361
4.8044                 0.2338518         120.547        0.1465678        37.48234        0.1465678        37.48233         0.233852        120.5471
4.8058                 0.2376733        119.7096        0.1461656        37.87334        0.1461656        37.87334        0.2376735        119.7097
4.8072                 0.2413676        118.8509        0.1458683        38.25592        0.1458683        38.25591        0.2413678         118.851
4.8086                 0.2449314        117.9726        0.1456712        38.62681        0.1456712         38.6268        0.2449316        117.9727
4.81                   0.2483614        117.0764        0.1455691        38.98297        0.1455691        38.98297        0.2483617        117.0766
4.8114                 0.2516551        116.1641        0.1455564        39.32163        0.1455564        39.32163        0.2516554        116.1642
4.8128                   0.25481        115.2369         0.145627        39.64032         0.145627        39.64031        0.2548103         115.237
4.8142                  0.257824        114.2965        0.1457746        39.93682        0.1457745        39.93683        0.2578244        114.2966
4.8156                 0.2606953        113.3439        0.1459924        40.20928        0.1459924        40.20929        0.2606957         113.344
4.817                  0.2634225        112.3805        0.1462738        40.45613        0.1462738        40.45614        0.2634229        112.3807
4.8184                 0.2660042        111.4074        0.1466118        40.67613        0.1466118        40.67613        0.2660045        111.4076
4.8198                 0.2684395        110.4257        0.1469994        40.86833        0.1469993        40.86833        0.2684399        110.4258
4.8212                 0.2707277        109.4363        0.1474296        41.03208        0.1474295        41.03209        0.2707281        109.4364
4.8226                 0.2728684        108.4402        0.1478955        41.16703        0.1478954        41.16704        0.2728689        108.4403
4.824                  0.2748616        107.4382        0.1483903        41.27307        0.1483903        41.27308        0.2748621        107.4384
4.8254                 0.2767072        106.4314        0.1489075        41.35033        0.1489074        41.35034        0.2767077        106.4315
4.8268                 0.2784055        105.4203        0.1494405        41.39916        0.1494405        41.39917         0.278406        105.4204
4.8282                 0.2799572        104.4058        0.1499832        41.42013        0.1499831        41.42014        0.2799577        104.4059
4.8296                  0.281363        103.3885        0.1505296        41.41395        0.1505296        41.41397        0.2813635        103.3887
4.831                  0.2826239        102.3693        0.1510742        41.38152        0.1510741        41.38154        0.2826245        102.3694
4.8324                 0.2837412        101.3487        0.1516115        41.32386        0.1516115        41.32388        0.2837418        101.3488
4.8338                 0.2847164        100.3273        0.1521367         41.2421        0.1521367        41.24211         0.284717        100.3274
4.8352                  0.285551        99.30571        0.1526449        41.13748        0.1526449        41.13749        0.2855516        99.30581
4.8366                  0.286247        98.28451         0.153132        41.01131         0.153132        41.01132        0.2862476        98.28461
4.838                  0.2868062        97.26421         0.153594        40.86497         0.153594        40.86499        0.2868069        97.26431
4.8394                  0.287231        96.24533        0.1540272        40.69992        0.1540272        40.69994        0.2872317        96.24543
4.8408                 0.2875237        95.22833        0.1544285        40.51761        0.1544285        40.51764        0.2875244        95.22842
4.8422                  0.287687        94.21369         0.154795        40.31956         0.154795        40.31959        0.2876876        94.21379
4.8436                 0.2877233        93.20182        0.1551241        40.10731         0.155124        40.10734         0.287724         93.2019
4.845                  0.2876357        92.19313        0.1554136        39.88238        0.1554136         39.8824        0.2876364        92.19323
4.8464                 0.2874271        91.18803        0.1556619        39.64632        0.1556619        39.64634        0.2874278        91.18813
4.8478                 0.2871005        90.18689        0.1558674        39.40068        0.1558674         39.4007        0.2871013        90.18699
4.8492                 0.2866594        89.19006         0.156029        39.14698         0.156029          39.147          0.28666        89.19013
4.8506                 0.2861068        88.19782        0.1561459        38.88674        0.1561459        38.88676        0.2861075         88.1979
4.852                  0.2854464         87.2105        0.1562176        38.62147        0.1562176        38.62149        0.2854471        87.21057
4.8534                 0.2846816        86.22841         0.156244        38.35264         0.156244        38.35266        0.2846823        86.22847
4.8548                  0.283816        85.25178        0.1562252        38.08169        0.1562252        38.08171        0.2838167        85.25185
4.8562                 0.2828533        84.28085        0.1561617        37.81006        0.1561618        37.81007         0.282854         84.2809
4.8576                 0.2817973         83.3158        0.1560543        37.53912        0.1560543        37.53913        0.2817979        83.31588
4.859                  0.2806516        82.35689        0.1559038        37.27021        0.1559038        37.27022        0.2806523        82.35697
4.8604                 0.2794201        81.40426        0.1557116        37.00464        0.1557117        37.00465        0.2794208        81.40431
4.8618                 0.2781067        80.45803        0.1554793        36.74367        0.1554793        36.74368        0.2781073        80.45808
4.8632                 0.2767152        79.51834        0.1552085        36.48852        0.1552085        36.48853        0.2767158        79.51839
4.8646                 0.2752494         78.5853        0.1549013        36.24033        0.1549013        36.24033        0.2752499        78.58535
4.866                   0.273713        77.65895        0.1545598        36.00021        0.1545598        36.00022        0.2737136        77.65898
4.8674                 0.2721101        76.73934        0.1541864        35.76922        0.1541864        35.76923        0.2721106        76.73939
4.8688                 0.2704442         75.8265        0.1537838        35.54832        0.1537838        35.54833        0.2704448        75.82655
4.8702                 0.2687193        74.92043        0.1533546        35.33842        0.1533546        35.33843        0.2687198        74.92045
4.8716                 0.2669389        74.02106        0.1529017        35.14039        0.1529018        35.14039        0.2669393        74.02111