! TOUCHSTONE file generated by CST MICROWAVE STUDIO
! Date and time: Sun Dec  1 17:26:32 2024
! Project name: test_tuning.cst
! Parameters = {airCoaxOuterDiameter=3; chamferAngle=45; chamferWidth=6; connectorLength=10; drillingHoleDiameter=4.1; feedLength=60; flareDiameter=130; flareLength=70; gratingDistance=0; gratingGap=1.90274; outletLength=30; polarizerLength=134; probe1Diameter=1.3; probe1Distance=14; probe1Length=12; probe2Diameter=1.3; probe2Distance=0; probe2Length=12; probeLength=12; smaInnerDiameter=1.3; smaOuterDiameter=4.1; transitionCoefficient=1.33; waveguideFeedLength=30; waveguideSide=50; waveguideThickness=3; wireCount=25; wireDiameter=1.17699}
! Header version: 2024
! Port assignment regex: !\s*Touchstone port\s*([0-9]+)\s*=\s*(CST MWS port|CST DES external port|CST DES block port)\s*(.+)\s* \(\"(.*)\"\)(\s*mode\s*([0-9]+))?.*
! Touchstone port assignment:
! Touchstone port 1 = CST MWS port 1 ("Input1")
! Touchstone port 2 = CST MWS port 2 ("Input2")
# GHz S MA R 50
4.6                    0.3378216        89.64935        0.1673123        94.77952        0.1673122        94.77942        0.3378206        89.64965
4.6014                 0.3361609        89.16106        0.1690936        94.44648        0.1690935        94.44639          0.33616        89.16136
4.6028                 0.3344266        88.67564        0.1708004        94.09995        0.1708002        94.09987        0.3344257        88.67596
4.6042                 0.3326192        88.19358        0.1724322        93.74242         0.172432        93.74234        0.3326183        88.19392
4.6056                 0.3307393        87.71538        0.1739893        93.37627        0.1739891        93.37619        0.3307385        87.71574
4.607                   0.328788        87.24158        0.1754724         93.0037        0.1754722        93.00362        0.3287873        87.24197
4.6084                 0.3267664        86.77273        0.1768827        92.62682        0.1768825        92.62674        0.3267657        86.77312
4.6098                 0.3246759         86.3094        0.1782219        92.24762        0.1782217        92.24754        0.3246753         86.3098
4.6112                  0.322518        85.85215         0.179492        91.86791        0.1794918        91.86783        0.3225175        85.85258
4.6126                 0.3202945         85.4016        0.1806955        91.48942        0.1806953        91.48935        0.3202941        85.40203
4.614                  0.3180075        84.95834        0.1818353        91.11376        0.1818351        91.11371        0.3180072         84.9588
4.6154                 0.3156592        84.52302        0.1829148        90.74243        0.1829145        90.74238        0.3156589        84.52349
4.6168                 0.3132521        84.09625        0.1839374        90.37677        0.1839371        90.37672        0.3132519        84.09672
4.6182                 0.3107888        83.67865        0.1849073        90.01797        0.1849069        90.01793        0.3107887        83.67914
4.6196                 0.3082723         83.2709        0.1858287        89.66721        0.1858284        89.66716        0.3082724        83.27138
4.621                  0.3057057        82.87358        0.1867063        89.32539         0.186706        89.32536        0.3057058        82.87409
4.6224                 0.3030922        82.48738         0.187545        88.99342        0.1875447        88.99339        0.3030926        82.48791
4.6238                 0.3004355         82.1129          0.18835        88.67198        0.1883497        88.67195        0.3004359        82.11342
4.6252                 0.2977392        81.75075        0.1891267        88.36161        0.1891263        88.36158        0.2977397        81.75127
4.6266                 0.2950072        81.40155        0.1898805        88.06277        0.1898801        88.06275        0.2950078        81.40209
4.628                  0.2922434        81.06589        0.1906172         87.7757        0.1906169         87.7757        0.2922442        81.06643
4.6294                 0.2894521        80.74433        0.1913427        87.50055        0.1913423        87.50056         0.289453        80.74485
4.6308                 0.2866375        80.43739        0.1920629        87.23728        0.1920625        87.23731        0.2866385        80.43792
4.6322                 0.2838041         80.1456        0.1927837        86.98572        0.1927833        86.98575        0.2838052        80.14614
4.6336                 0.2809564        79.86944         0.193511        86.74552        0.1935106        86.74555        0.2809576        79.86997
4.635                  0.2780989        79.60932        0.1942507         86.5162        0.1942503        86.51623        0.2781002        79.60984
4.6364                 0.2752361        79.36565        0.1950087        86.29707        0.1950083        86.29711        0.2752376        79.36617
4.6378                 0.2723728        79.13875        0.1957905        86.08738        0.1957901        86.08743        0.2723744        79.13926
4.6392                 0.2695136        78.92893        0.1966016        85.88612        0.1966012        85.88619        0.2695153        78.92943
4.6406                 0.2666631        78.73638        0.1974472        85.69228        0.1974468        85.69236        0.2666648        78.73686
4.642                  0.2638257         78.5613        0.1983322        85.50461        0.1983318         85.5047        0.2638275        78.56178
4.6434                  0.261006        78.40375        0.1992612        85.32179        0.1992608        85.32187        0.2610079        78.40421
4.6448                 0.2582082        78.26377        0.2002384        85.14234         0.200238        85.14242        0.2582102        78.26422
4.6462                 0.2554366        78.14132        0.2012676        84.96476        0.2012673        84.96487        0.2554387        78.14173
4.6476                 0.2526953        78.03623        0.2023521        84.78744        0.2023518        84.78754        0.2526974        78.03662
4.649                  0.2499879        77.94831        0.2034948        84.60868        0.2034945        84.60879        0.2499901        77.94867
4.6504                 0.2473181        77.87725        0.2046981        84.42675        0.2046978        84.42685        0.2473204         77.8776
4.6518                 0.2446893        77.82269        0.2059637        84.23992        0.2059635        84.24003        0.2446916        77.82301
4.6532                 0.2421045        77.78414         0.207293        84.04641        0.2072928        84.04653        0.2421068        77.78444
4.6546                 0.2395663        77.76106        0.2086867        83.84449        0.2086865        83.84461        0.2395687        77.76135
4.656                  0.2370773        77.75284        0.2101448        83.63242        0.2101446        83.63253        0.2370797        77.75309
4.6574                 0.2346394        77.75876        0.2116669        83.40851        0.2116668        83.40862        0.2346418        77.75899
4.6588                 0.2322544        77.77806        0.2132522        83.17113        0.2132521        83.17126        0.2322568        77.77825
4.6602                 0.2299234        77.80988        0.2148989        82.91877        0.2148988        82.91888        0.2299257        77.81005
4.6616                 0.2276473        77.85334        0.2166051        82.64991        0.2166051        82.65002        0.2276497        77.85347
4.663                  0.2254266        77.90748        0.2183681         82.3632         0.218368        82.36333         0.225429        77.90759
4.6644                 0.2232614         77.9713        0.2201848        82.05741        0.2201848        82.05752        0.2232637        77.97139
4.6658                 0.2211511        78.04379        0.2220517        81.73134        0.2220517        81.73148        0.2211534        78.04385
4.6672                 0.2190949        78.12393        0.2239647        81.38402        0.2239648        81.38414        0.2190972        78.12394
4.6686                 0.2170918        78.21062        0.2259195        81.01449        0.2259195        81.01462        0.2170939        78.21059
4.67                   0.2151399        78.30285        0.2279112        80.62201        0.2279113        80.62212         0.215142        78.30281
4.6714                 0.2132372        78.39958        0.2299347        80.20589        0.2299348        80.20598        0.2132392        78.39951
4.6728                 0.2113813        78.49983        0.2319847         79.7656        0.2319848        79.76571        0.2113833        78.49972
4.6742                 0.2095696        78.60262        0.2340554        79.30075        0.2340556        79.30083        0.2095715         78.6025
4.6756                 0.2077988        78.70707        0.2361409        78.81102        0.2361411        78.81111        0.2078006        78.70692
4.677                  0.2060656        78.81235        0.2382351        78.29624        0.2382354        78.29632        0.2060673        78.81219
4.6784                 0.2043663        78.91772        0.2403319         77.7563        0.2403321        77.75638        0.2043679        78.91753
4.6798                 0.2026971        79.02252        0.2424247        77.19127         0.242425        77.19136        0.2026986        79.02233
4.6812                 0.2010539        79.12617        0.2445072        76.60122        0.2445074        76.60131        0.2010554        79.12598
4.6826                 0.1994325        79.22829        0.2465728        75.98638        0.2465731        75.98646        0.1994339        79.22806
4.684                  0.1978287        79.32851        0.2486149        75.34704        0.2486153         75.3471          0.19783        79.32827
4.6854                 0.1962379        79.42666        0.2506271        74.68351        0.2506275        74.68358        0.1962391        79.42643
4.6868                 0.1946558         79.5227        0.2526029        73.99624        0.2526032        73.99631        0.1946569        79.52245
4.6882                 0.1930781        79.61669        0.2545356        73.28573        0.2545359        73.28577        0.1930791        79.61643
4.6896                 0.1915003        79.70889         0.256419        72.55248        0.2564193        72.55253        0.1915012        79.70863
4.691                  0.1899183        79.79966        0.2582468        71.79709        0.2582471        71.79712        0.1899192        79.79941
4.6924                 0.1883281        79.88956        0.2600127        71.02018         0.260013        71.02022        0.1883288        79.88932
4.6938                 0.1867256         79.9793        0.2617107        70.22241         0.261711        70.22246        0.1867263        79.97905
4.6952                 0.1851073        80.06972         0.263335         69.4045        0.2633353        69.40453        0.1851079        80.06949
4.6966                 0.1834698        80.16186        0.2648798        68.56715        0.2648802        68.56718        0.1834703        80.16161
4.698                  0.1818101        80.25688        0.2663396        67.71111        0.2663399        67.71112        0.1818105        80.25666
4.6994                 0.1801254        80.35614         0.267709        66.83716        0.2677093        66.83716        0.1801257        80.35593
4.7008                 0.1784133        80.46118        0.2689829        65.94606        0.2689832        65.94609        0.1784136        80.46096
4.7022                 0.1766721        80.57364        0.2701563        65.03865        0.2701566        65.03867        0.1766723        80.57344
4.7036                 0.1749002        80.69539        0.2712246        64.11574        0.2712249        64.11574        0.1749004        80.69521
4.705                  0.1730967        80.82844        0.2721833        63.17813        0.2721836        63.17814        0.1730969        80.82825
4.7064                 0.1712613        80.97495        0.2730283        62.22669        0.2730285        62.22669        0.1712614        80.97477
4.7078                  0.169394        81.13723        0.2737554        61.26224        0.2737557        61.26223        0.1693941        81.13709
4.7092                 0.1674957        81.31783        0.2743612        60.28565        0.2743614        60.28565        0.1674957        81.31769
4.7106                 0.1655677        81.51932        0.2748421        59.29776        0.2748424        59.29773        0.1655677        81.51924
4.712                  0.1636121        81.74459         0.275195        58.29946        0.2751952        58.29946        0.1636121        81.74451
4.7134                 0.1616317        81.99654        0.2754169        57.29161        0.2754172        57.29158        0.1616317        81.99645
4.7148                   0.15963        82.27818        0.2755054        56.27509        0.2755057        56.27506        0.1596299        82.27812
4.7162                 0.1576112        82.59273        0.2754581        55.25078        0.2754584        55.25075        0.1576112        82.59268
4.7176                 0.1555805        82.94344        0.2752731        54.21952        0.2752733        54.21952        0.1555805        82.94341
4.719                  0.1535437        83.33365        0.2749484         53.1823        0.2749486         53.1823        0.1535437        83.33366
4.7204                 0.1515076        83.76677        0.2744828        52.14002         0.274483        52.13999        0.1515075        83.76677
4.7218                 0.1494797         84.2461         0.273875         51.0935        0.2738752        51.09347        0.1494797        84.24613
4.7232                 0.1474686        84.77503        0.2731244        50.04372        0.2731245        50.04369        0.1474686        84.77506
4.7246                 0.1454837        85.35674        0.2722302        48.99159        0.2722303        48.99156        0.1454837        85.35677
4.726                  0.1435351        85.99424        0.2711923        47.93812        0.2711924        47.93809        0.1435351        85.99429
4.7274                 0.1416341        86.69032        0.2700107         46.8842        0.2700108        46.88417        0.1416341         86.6904
4.7288                 0.1397925         87.4474        0.2686858        45.83083         0.268686         45.8308        0.1397925        87.44748
4.7302                  0.138023        88.26743        0.2672183        44.77902        0.2672184        44.77899        0.1380232        88.26753
4.7316                 0.1363392        89.15179         0.265609        43.72974        0.2656091        43.72974        0.1363394        89.15189
4.733                   0.134755        90.10113        0.2638593        42.68408        0.2638594        42.68405        0.1347552        90.10125
4.7344                 0.1332849        91.11534        0.2619706        41.64307        0.2619707        41.64304        0.1332851        91.11546
4.7358                 0.1319437        92.19331        0.2599449        40.60777         0.259945        40.60776        0.1319439        92.19343
4.7372                 0.1307463        93.33283        0.2577843        39.57937        0.2577843        39.57934        0.1307465        93.33298
4.7386                 0.1297074        94.53063        0.2554911        38.55893        0.2554911        38.55891        0.1297077        94.53078
4.74                   0.1288414         95.7821         0.253068        37.54772         0.253068        37.54766        0.1288418        95.78224
4.7414                 0.1281622        97.08147        0.2505182        36.54688        0.2505182        36.54685        0.1281626        97.08158
4.7428                 0.1276825        98.42162        0.2478448        35.55775        0.2478448        35.55772        0.1276829        98.42173
4.7442                  0.127414        99.79439        0.2450514        34.58158        0.2450514        34.58155        0.1274144         99.7945
4.7456                 0.1273666        101.1905        0.2421419        33.61976        0.2421419        33.61973        0.1273671        101.1906
4.747                  0.1275489        102.5999        0.2391204        32.67372        0.2391203         32.6737        0.1275493           102.6
4.7484                  0.127967        104.0118        0.2359912        31.74492        0.2359912        31.74491        0.1279675        104.0119
4.7498                 0.1286254        105.4153        0.2327591        30.83492         0.232759         30.8349         0.128626        105.4153
4.7512                 0.1295261        106.7991         0.229429        29.94531        0.2294289         29.9453        0.1295266        106.7992
4.7526                 0.1306688        108.1527        0.2260061        29.07779         0.226006        29.07778        0.1306694        108.1527
4.754                  0.1320512        109.4655        0.2224958        28.23412        0.2224957        28.23411        0.1320517        109.4655
4.7554                 0.1336688        110.7282         0.218904        27.41616        0.2189039        27.41615        0.1336693        110.7282
4.7568                  0.135515        111.9321        0.2152366        26.62584        0.2152366        26.62583        0.1355156        111.9321
4.7582                 0.1375818          113.07        0.2115001        25.86521           0.2115        25.86521        0.1375823          113.07
4.7596                 0.1398594        114.1356        0.2077009        25.13642        0.2077008        25.13642        0.1398599        114.1355
4.761                  0.1423368        115.1239        0.2038459         24.4417        0.2038458        24.44171        0.1423372        115.1238
4.7624                 0.1450019        116.0313        0.1999424        23.78344        0.1999423        23.78345        0.1450023        116.0312
4.7638                 0.1478419        116.8551        0.1959976        23.16411        0.1959975        23.16412        0.1478424        116.8551
4.7652                 0.1508435        117.5939        0.1920193        22.58631        0.1920192        22.58633         0.150844        117.5939
4.7666                  0.153993        118.2473        0.1880157        22.05277        0.1880156        22.05279        0.1539934        118.2472
4.768                  0.1572763        118.8154        0.1839949        21.56635        0.1839948        21.56637        0.1572768        118.8153
4.7694                 0.1606797        119.2994        0.1799656        21.13001        0.1799655        21.13003        0.1606801        119.2993
4.7708                 0.1641892        119.7008        0.1759368        20.74683        0.1759367        20.74687        0.1641896        119.7007
4.7722                 0.1677912        120.0219        0.1719177        20.42003        0.1719176        20.42007        0.1677916        120.0218
4.7736                 0.1714725         120.265         0.167918        20.15289         0.167918        20.15293        0.1714728         120.265
4.775                    0.17522        120.4331        0.1639476        19.94877        0.1639476        19.94881        0.1752203         120.433
4.7764                 0.1790213        120.5289        0.1600168        19.81109        0.1600168        19.81114        0.1790216        120.5288
4.7778                 0.1828642        120.5557        0.1561361        19.74329        0.1561361        19.74333        0.1828645        120.5556
4.7792                 0.1867371        120.5165        0.1523165        19.74875        0.1523165        19.74881        0.1867374        120.5164
4.7806                 0.1906289        120.4145        0.1485692        19.83081        0.1485692        19.83086        0.1906291        120.4145
4.782                  0.1945288         120.253        0.1449057        19.99261        0.1449057        19.99267         0.194529        120.2529
4.7834                 0.1984267        120.0349        0.1413378        20.23707        0.1413377        20.23714        0.1984269        120.0349
4.7848                 0.2023128        119.7633        0.1378773        20.56681        0.1378773        20.56687         0.202313        119.7633
4.7862                  0.206178        119.4413        0.1345363        20.98394        0.1345364        20.98401        0.2061782        119.4412
4.7876                 0.2100134        119.0714        0.1313271        21.49005        0.1313271        21.49012        0.2100135        119.0714
4.789                  0.2138106        118.6566        0.1282616          22.086        0.1282616        22.08607        0.2138108        118.6566
4.7904                 0.2175618        118.1995        0.1253517         22.7718        0.1253517        22.77187         0.217562        118.1995
4.7918                 0.2212596        117.7025        0.1226089        23.54645         0.122609        23.54652        0.2212598        117.7025
4.7932                 0.2248968         117.168        0.1200443        24.40784        0.1200444        24.40791        0.2248969         117.168
4.7946                 0.2284667        116.5982        0.1176682        25.35259        0.1176682        25.35265        0.2284669        116.5982
4.796                  0.2319631        115.9954        0.1154898        26.37595        0.1154899        26.37601        0.2319633        115.9954
4.7974                 0.2353802        115.3615        0.1135176        27.47179        0.1135177        27.47185        0.2353803        115.3615
4.7988                 0.2387122        114.6986        0.1117582        28.63257        0.1117583        28.63263        0.2387124        114.6986
4.8002                 0.2419542        114.0083         0.110217        29.84944        0.1102171         29.8495        0.2419543        114.0084
4.8016                 0.2451011        113.2926        0.1088974        31.11233        0.1088975        31.11237        0.2451013        113.2926
4.803                  0.2481486         112.553        0.1078009        32.41016         0.107801         32.4102        0.2481488         112.553
4.8044                 0.2510925         111.791        0.1069271        33.73115        0.1069272        33.73118        0.2510927         111.791
4.8058                 0.2539289        111.0082        0.1062734        35.06307        0.1062735         35.0631        0.2539291        111.0082
4.8072                 0.2566542         110.206        0.1058352        36.39362        0.1058353        36.39364        0.2566544         110.206
4.8086                 0.2592652        109.3856        0.1056059        37.71073         0.105606        37.71074        0.2592654        109.3857
4.81                    0.261759        108.5485         0.105577        39.00296        0.1055772        39.00297        0.2617592        108.5485
4.8114                  0.264133        107.6957        0.1057387        40.25973        0.1057388        40.25973        0.2641332        107.6957
4.8128                 0.2663847        106.8284        0.1060794        41.47155        0.1060795        41.47155        0.2663849        106.8284
4.8142                 0.2685121        105.9477        0.1065866        42.63027        0.1065867        42.63026        0.2685123        105.9477
4.8156                 0.2705132        105.0546        0.1072471        43.72905        0.1072472        43.72904        0.2705135        105.0547
4.817                  0.2723867        104.1502        0.1080469        44.76253         0.108047        44.76251         0.272387        104.1502
4.8184                 0.2741312        103.2352        0.1089718        45.72671        0.1089719        45.72668        0.2741315        103.2353
4.8198                 0.2757457        102.3107        0.1100076        46.61892        0.1100077        46.61889        0.2757459        102.3108
4.8212                 0.2772293        101.3776        0.1111401        47.43771        0.1111402        47.43768        0.2772295        101.3776
4.8226                 0.2785815        100.4365        0.1123556        48.18271        0.1123557        48.18267        0.2785818        100.4366
4.824                  0.2798021        99.48835        0.1136409        48.85447        0.1136409        48.85444        0.2798023        99.48843
4.8254                 0.2808909        98.53384         0.114983        49.45439        0.1149831        49.45435        0.2808912        98.53391
4.8268                 0.2818481        97.57372          0.11637        49.98445        0.1163701        49.98442        0.2818485        97.57379
4.8282                 0.2826741        96.60865        0.1177906         50.4472        0.1177907        50.44717        0.2826744        96.60872
4.8296                 0.2833696        95.63931        0.1192342        50.84557        0.1192343        50.84553        0.2833699        95.63937
4.831                  0.2839351        94.66633        0.1206911        51.18277        0.1206911        51.18273        0.2839354        94.66638
4.8324                 0.2843719         93.6903        0.1221521        51.46223        0.1221522        51.46219        0.2843722        93.69035
4.8338                 0.2846811        92.71181        0.1236092         51.6875        0.1236092        51.68746        0.2846814        92.71189
4.8352                 0.2848641        91.73147        0.1250549        51.86218        0.1250549        51.86215        0.2848644        91.73153
4.8366                 0.2849225        90.74976        0.1264824         51.9899        0.1264825        51.98986        0.2849228        90.74982
4.838                   0.284858        89.76721        0.1278859        52.07425        0.1278859        52.07422        0.2848584        89.76729
4.8394                 0.2846726        88.78435          0.12926        52.11873          0.12926         52.1187         0.284673        88.78443
4.8408                 0.2843685        87.80164        0.1306001        52.12681        0.1306001        52.12678        0.2843689        87.80169
4.8422                 0.2839478        86.81951        0.1319022         52.1018        0.1319022        52.10177        0.2839481        86.81958
4.8436                 0.2834129        85.83844         0.133163        52.04691         0.133163         52.0469        0.2834132        85.83849
4.845                  0.2827665        84.85882        0.1343795        51.96524        0.1343795        51.96523        0.2827668        84.85889
4.8464                 0.2820111        83.88109        0.1355496        51.85974        0.1355496        51.85972        0.2820114        83.88114
4.8478                 0.2811496        82.90557        0.1366714         51.7332        0.1366714         51.7332        0.2811499        82.90564
4.8492                 0.2801849        81.93266        0.1377437        51.58834        0.1377437        51.58833        0.2801852        81.93274
4.8506                   0.27912        80.96271        0.1387656        51.42767        0.1387656        51.42766        0.2791204        80.96277
4.852                  0.2779581        79.99602        0.1397367         51.2536        0.1397367         51.2536        0.2779584        79.99609
4.8534                 0.2767023        79.03292        0.1406571         51.0684        0.1406571         51.0684        0.2767027        79.03297
4.8548                  0.275356        78.07367         0.141527        50.87422         0.141527        50.87422        0.2753563        78.07373
4.8562                 0.2739225        77.11856        0.1423473        50.67305        0.1423473        50.67306        0.2739228        77.11861
4.8576                 0.2724053        76.16779         0.143119        50.46678         0.143119        50.46679        0.2724056        76.16784
4.859                  0.2708077        75.22162        0.1438435        50.25715        0.1438434        50.25716        0.2708079        75.22167
4.8604                 0.2691333        74.28024        0.1445224         50.0458        0.1445223        50.04581        0.2691335        74.28029
4.8618                 0.2673856        73.34383        0.1451576        49.83422        0.1451576        49.83423        0.2673858        73.34388
4.8632                 0.2655682        72.41252        0.1457514        49.62379        0.1457514         49.6238        0.2655684        72.41258
4.8646                 0.2636846         71.4865        0.1463062        49.41578        0.1463062        49.41579        0.2636848        71.48653
4.866                  0.2617383        70.56581        0.1468244        49.21131        0.1468244        49.21133        0.2617386        70.56585
4.8674                 0.2597331        69.65056         0.147309        49.01142         0.147309        49.01144        0.2597333        69.65062
4.8688                 0.2576722        68.74083        0.1477627          48.817        0.1477627        48.81702        0.2576724        68.74087
4.8702                 0.2555592        67.83662        0.1481887        48.62883        0.1481887        48.62885        0.2555594        67.83666
4.8716                 0.2533977        66.93795        0.1485901        48.44758        0.1485901         48.4476        0.2533978          66.938