! TOUCHSTONE file generated by CST MICROWAVE STUDIO
! Date and time: Sun Dec  1 17:26:31 2024
! Project name: test_tuning.cst
! Parameters = {airCoaxOuterDiameter=3; chamferAngle=45; chamferWidth=2; connectorLength=10; drillingHoleDiameter=4.1; feedLength=60; flareDiameter=130; flareLength=70; gratingDistance=0; gratingGap=1.90274; outletLength=30; polarizerLength=134; probe1Diameter=1.3; probe1Distance=14; probe1Length=12; probe2Diameter=1.3; probe2Distance=0; probe2Length=12; probeLength=12; smaInnerDiameter=1.3; smaOuterDiameter=4.1; transitionCoefficient=1.33; waveguideFeedLength=30; waveguideSide=50; waveguideThickness=3; wireCount=25; wireDiameter=1.17699}
! Header version: 2024
! Port assignment regex: !\s*Touchstone port\s*([0-9]+)\s*=\s*(CST MWS port|CST DES external port|CST DES block port)\s*(.+)\s* \(\"(.*)\"\)(\s*mode\s*([0-9]+))?.*
! Touchstone port assignment:
! Touchstone port 1 = CST MWS port 1 ("Input1")
! Touchstone port 2 = CST MWS port 2 ("Input2")
# GHz S MA R 50
4.6                    0.2943905        85.75587        0.2201513        96.58972        0.2201513        96.58965        0.2943905        85.75593
4.6014                 0.2925458        85.33779        0.2213661        95.96557        0.2213661         95.9655        0.2925458        85.33785
4.6028                 0.2906004        84.92309        0.2225037        95.34843        0.2225037        95.34836        0.2906005        84.92315
4.6042                 0.2885553        84.51303        0.2235675        94.73922        0.2235676        94.73915        0.2885554        84.51311
4.6056                  0.286412        84.10896        0.2245614        94.13875        0.2245614        94.13868        0.2864121        84.10903
4.607                  0.2841724        83.71223        0.2254892        93.54778        0.2254893        93.54772        0.2841725        83.71228
4.6084                 0.2818389        83.32423        0.2263554        92.96701        0.2263554        92.96694         0.281839        83.32428
4.6098                 0.2794142        82.94636        0.2271644        92.39703        0.2271644        92.39696        0.2794144        82.94643
4.6112                 0.2769018        82.58011        0.2279209        91.83837        0.2279209        91.83832         0.276902        82.58017
4.6126                 0.2743054        82.22694        0.2286298        91.29149        0.2286298        91.29144        0.2743056        82.22699
4.614                  0.2716292        81.88834        0.2292963        90.75676        0.2292963         90.7567        0.2716294        81.88839
4.6154                 0.2688779        81.56583        0.2299255        90.23441        0.2299255        90.23436         0.268878         81.5659
4.6168                 0.2660565        81.26096        0.2305228        89.72466        0.2305228        89.72461        0.2660566        81.26103
4.6182                 0.2631705        80.97528        0.2310938        89.22756        0.2310937        89.22751        0.2631707        80.97537
4.6196                 0.2602261        80.71038        0.2316438        88.74311        0.2316437        88.74307        0.2602263        80.71045
4.621                  0.2572294        80.46779        0.2321784        88.27122        0.2321784        88.27116        0.2572296        80.46784
4.6224                 0.2541872        80.24908        0.2327032        87.81163        0.2327032        87.81158        0.2541874        80.24914
4.6238                 0.2511067        80.05579        0.2332238        87.36405        0.2332238        87.36401        0.2511069        80.05586
4.6252                 0.2479954        79.88947        0.2337456        86.92806        0.2337455        86.92801        0.2479956        79.88953
4.6266                  0.244861        79.75161        0.2342738        86.50312        0.2342738        86.50307        0.2448612        79.75166
4.628                  0.2417118        79.64365        0.2348139         86.0886        0.2348139        86.08856        0.2417119        79.64371
4.6294                 0.2385561          79.567        0.2353708        85.68378        0.2353707        85.68374        0.2385563        79.56705
4.6308                 0.2354027        79.52298        0.2359493        85.28784        0.2359492        85.28779        0.2354028        79.52303
4.6322                 0.2322604         79.5128         0.236554        84.89983        0.2365539         84.8998        0.2322606        79.51286
4.6336                 0.2291385        79.53761        0.2371892        84.51876        0.2371891        84.51874        0.2291386        79.53767
4.635                  0.2260461        79.59841        0.2378589        84.14356        0.2378589        84.14353        0.2260462        79.59846
4.6364                 0.2229926          79.696        0.2385667        83.77304        0.2385667        83.77302        0.2229927        79.69606
4.6378                 0.2199874         79.8311        0.2393159        83.40601        0.2393159        83.40598        0.2199875        79.83115
4.6392                 0.2170399        80.00414        0.2401094        83.04114        0.2401093        83.04112          0.21704         80.0042
4.6406                 0.2141594         80.2154        0.2409495        82.67714        0.2409494        82.67711        0.2141595        80.21545
4.642                  0.2113551        80.46489        0.2418382        82.31263        0.2418381        82.31261        0.2113552        80.46494
4.6434                 0.2086359        80.75231        0.2427769        81.94622        0.2427769         81.9462         0.208636        80.75237
4.6448                 0.2060106        81.07717        0.2437669        81.57653        0.2437668        81.57651        0.2060107         81.0772
4.6462                 0.2034873        81.43855        0.2448085        81.20212        0.2448085        81.20211        0.2034874         81.4386
4.6476                  0.201074        81.83529        0.2459018        80.82167        0.2459018        80.82164        0.2010741        81.83534
4.649                  0.1987778        82.26591        0.2470464        80.43376        0.2470464        80.43373        0.1987779        82.26596
4.6504                 0.1966056        82.72852        0.2482413        80.03706        0.2482413        80.03703        0.1966057        82.72857
4.6518                 0.1945631        83.22097        0.2494852         79.6303        0.2494851        79.63027        0.1945632        83.22103
4.6532                 0.1926556        83.74074        0.2507761        79.21225         0.250776        79.21221        0.1926557         83.7408
4.6546                 0.1908873        84.28504        0.2521116         78.7817        0.2521116        78.78166        0.1908874        84.28509
4.656                  0.1892616        84.85076        0.2534891        78.33757        0.2534891        78.33754        0.1892616        84.85082
4.6574                 0.1877808        85.43458        0.2549054        77.87881        0.2549053        77.87878        0.1877809        85.43465
4.6588                 0.1864463        86.03295        0.2563568        77.40448        0.2563567        77.40445        0.1864463          86.033
4.6602                 0.1852583        86.64218        0.2578394        76.91373        0.2578393         76.9137        0.1852584        86.64223
4.6616                 0.1842162        87.25846         0.259349        76.40572        0.2593489        76.40569        0.1842162        87.25854
4.663                  0.1833179        87.87796         0.260881        75.87978        0.2608809        75.87977        0.1833179        87.87803
4.6644                 0.1825606        88.49683        0.2624304        75.33534        0.2624304        75.33529        0.1825607         88.4969
4.6658                 0.1819405         89.1113        0.2639923        74.77181        0.2639923        74.77179        0.1819406         89.1114
4.6672                 0.1814527        89.71774        0.2655613        74.18881        0.2655612        74.18879        0.1814528        89.71783
4.6686                 0.1810915        90.31266        0.2671319        73.58599        0.2671318        73.58597        0.1810915        90.31275
4.67                   0.1808502        90.89283        0.2686984        72.96306        0.2686983        72.96303        0.1808502        90.89293
4.6714                 0.1807218        91.45527         0.270255        72.31987        0.2702549        72.31984        0.1807218        91.45536
4.6728                 0.1806982        91.99729        0.2717959        71.65627        0.2717959        71.65625        0.1806982        91.99737
4.6742                 0.1807712        92.51651        0.2733151        70.97228        0.2733151        70.97225        0.1807712        92.51662
4.6756                 0.1809318        93.01096        0.2748067        70.26789        0.2748066        70.26786        0.1809319        93.01107
4.677                   0.181171        93.47892        0.2762646        69.54322        0.2762644        69.54318        0.1811711        93.47903
4.6784                 0.1814795        93.91909        0.2776827        68.79842        0.2776826        68.79839        0.1814796        93.91921
4.6798                 0.1818479         94.3305        0.2790551         68.0337         0.279055        68.03369        0.1818479        94.33061
4.6812                 0.1822666         94.7125         0.280376        67.24935        0.2803759        67.24933        0.1822667         94.7126
4.6826                 0.1827264        95.06476        0.2816394        66.44565        0.2816393        66.44563        0.1827264        95.06486
4.684                  0.1832179        95.38726        0.2828396        65.62298        0.2828395        65.62296         0.183218        95.38739
4.6854                 0.1837322         95.6803        0.2839709        64.78172        0.2839708         64.7817        0.1837323        95.68044
4.6868                 0.1842606         95.9444        0.2850279        63.92229        0.2850278        63.92226        0.1842607        95.94452
4.6882                 0.1847947        96.18029        0.2860051        63.04517        0.2860049        63.04515        0.1847948        96.18042
4.6896                 0.1853265        96.38897        0.2868972        62.15084        0.2868971        62.15082        0.1853266         96.3891
4.691                  0.1858486         96.5716        0.2876993        61.23981        0.2876992        61.23978        0.1858487        96.57173
4.6924                 0.1863538        96.72952        0.2884064        60.31261        0.2884062         60.3126         0.186354        96.72965
4.6938                 0.1868357        96.86417        0.2890138        59.36981        0.2890137         59.3698        0.1868359         96.8643
4.6952                 0.1872883        96.97718        0.2895171        58.41199        0.2895169        58.41197        0.1872884        96.97731
4.6966                  0.187706        97.07024        0.2899119        57.43971        0.2899117         57.4397        0.1877062        97.07037
4.698                  0.1880842        97.14515         0.290194        56.45361        0.2901939        56.45359        0.1880844        97.14528
4.6994                 0.1884184        97.20378        0.2903598        55.45429        0.2903597        55.45426        0.1884186        97.20391
4.7008                  0.188705        97.24804        0.2904056        54.44236        0.2904054        54.44235        0.1887052        97.24817
4.7022                 0.1889409        97.27992        0.2903279         53.4185        0.2903276        53.41848        0.1889411        97.28005
4.7036                 0.1891237        97.30142        0.2901235        52.38332        0.2901233        52.38332        0.1891239        97.30155
4.705                  0.1892514        97.31454        0.2897897        51.33751        0.2897894        51.33751        0.1892516        97.31467
4.7064                 0.1893229        97.32135        0.2893237        50.28172        0.2893235        50.28171        0.1893231        97.32147
4.7078                 0.1893375        97.32388        0.2887231        49.21663        0.2887229        49.21662        0.1893378        97.32401
4.7092                 0.1892952        97.32416        0.2879857        48.14293        0.2879855        48.14291        0.1892954        97.32428
4.7106                 0.1891965        97.32421        0.2871098         47.0613        0.2871096        47.06125        0.1891967        97.32433
4.712                  0.1890426        97.32604        0.2860936        45.97241        0.2860934        45.97241        0.1890428        97.32614
4.7134                 0.1888352        97.33158        0.2849357        44.87704        0.2849355        44.87704        0.1888354        97.33168
4.7148                 0.1885766        97.34278        0.2836351        43.77591        0.2836349        43.77591        0.1885768         97.3429
4.7162                 0.1882697        97.36151        0.2821909        42.66968        0.2821907        42.66968        0.1882699        97.36161
4.7176                 0.1879179        97.38952        0.2806026        41.55915        0.2806023        41.55915        0.1879182        97.38965
4.719                  0.1875252        97.42862        0.2788697        40.44507        0.2788695        40.44507        0.1875255        97.42872
4.7204                  0.187096        97.48038        0.2769923        39.32821        0.2769921        39.32823        0.1870963        97.48048
4.7218                 0.1866353         97.5464        0.2749706        38.20934        0.2749703         38.2094        0.1866356         97.5465
4.7232                 0.1861485        97.62807         0.272805        37.08933        0.2728048        37.08933        0.1861488        97.62817
4.7246                 0.1856414        97.72671        0.2704963        35.96895        0.2704961        35.96895        0.1856417        97.72687
4.726                  0.1851203        97.84355        0.2680455        34.84907        0.2680453         34.8491        0.1851206        97.84364
4.7274                 0.1845918        97.97953        0.2654538        33.73057        0.2654536         33.7306        0.1845921        97.97962
4.7288                 0.1840629        98.13549        0.2627227        32.61437        0.2627225         32.6144        0.1840632        98.13561
4.7302                 0.1835408        98.31209         0.259854        31.50136        0.2598538        31.50139        0.1835411        98.31221
4.7316                  0.183033        98.50979        0.2568497        30.39257        0.2568495        30.39257        0.1830334        98.50989
4.733                  0.1825472        98.72876        0.2537121        29.28894        0.2537119        29.28897        0.1825475        98.72888
4.7344                  0.182091        98.96905        0.2504436        28.19161        0.2504434        28.19161        0.1820913        98.96915
4.7358                 0.1816724        99.23037        0.2470471        27.10161        0.2470468        27.10164        0.1816727        99.23047
4.7372                 0.1812992        99.51216        0.2435253        26.02013        0.2435252        26.02015        0.1812995        99.51226
4.7386                 0.1809791        99.81369        0.2398818        24.94837        0.2398816         24.9484        0.1809794        99.81378
4.74                   0.1807197        100.1338        0.2361198        23.88763        0.2361196        23.88766          0.18072        100.1339
4.7414                 0.1805284        100.4712        0.2322431        22.83926        0.2322429        22.83929        0.1805287        100.4714
4.7428                 0.1804122        100.8243        0.2282556        21.80468        0.2282554        21.80472        0.1804126        100.8244
4.7442                  0.180378        101.1913        0.2241614        20.78545        0.2241612        20.78548        0.1803783        101.1914
4.7456                 0.1804317        101.5699        0.2199649        19.78318        0.2199647        19.78322         0.180432          101.57
4.747                  0.1805792        101.9578        0.2156708        18.79963        0.2156706        18.79967        0.1805796        101.9579
4.7484                 0.1808257        102.3525        0.2112838        17.83668        0.2112836        17.83672         0.180826        102.3526
4.7498                 0.1811754        102.7513         0.206809        16.89634        0.2068089        16.89638        0.1811757        102.7514
4.7512                 0.1816322        103.1513        0.2022518         15.9808        0.2022516        15.98085        0.1816325        103.1514
4.7526                  0.182199        103.5494        0.1976176        15.09242        0.1976175        15.09247        0.1821994        103.5495
4.754                  0.1828782        103.9428        0.1929123        14.23378        0.1929122        14.23383        0.1828786        103.9429
4.7554                  0.183671        104.3281         0.188142        13.40765        0.1881418         13.4077        0.1836714        104.3283
4.7568                 0.1845782        104.7026        0.1833128         12.6171        0.1833127        12.61715        0.1845785        104.7027
4.7582                 0.1855993         105.063        0.1784315        11.86545        0.1784314        11.86551        0.1855997        105.0631
4.7596                 0.1867334        105.4066        0.1735049        11.15639        0.1735048        11.15645        0.1867338        105.4067
4.761                  0.1879787        105.7305        0.1685402        10.49392        0.1685401        10.49399        0.1879791        105.7306
4.7624                 0.1893326        106.0321        0.1635451        9.882496         0.163545        9.882563         0.189333        106.0322
4.7638                 0.1907918         106.309        0.1585274        9.327011        0.1585273        9.327081        0.1907921         106.309
4.7652                 0.1923522        106.5589        0.1534956        8.832892        0.1534955        8.832965        0.1923526         106.559
4.7666                 0.1940094        106.7798        0.1484585        8.406142        0.1484585        8.406217        0.1940098        106.7799
4.768                  0.1957582        106.9701        0.1434256        8.053421        0.1434256        8.053498        0.1957586        106.9701
4.7694                 0.1975929         107.128        0.1384068        7.782115        0.1384068        7.782196        0.1975933        107.1281
4.7708                 0.1995076        107.2524        0.1334129        7.600425        0.1334129        7.600506        0.1995079        107.2525
4.7722                 0.2014956        107.3423        0.1284553        7.517436        0.1284553        7.517519         0.201496        107.3424
4.7736                 0.2035503        107.3967        0.1235464        7.543203        0.1235464         7.54329        0.2035507        107.3968
4.775                  0.2056648        107.4152        0.1186997        7.688828        0.1186997        7.688915        0.2056652        107.4153
4.7764                 0.2078318        107.3973        0.1139296        7.966496        0.1139297        7.966585        0.2078322        107.3974
4.7778                 0.2100439        107.3429        0.1092522        8.389504        0.1092522        8.389595        0.2100443         107.343
4.7792                 0.2122939         107.252        0.1046848        8.972218        0.1046848         8.97231        0.2122943        107.2521
4.7806                 0.2145742        107.1247        0.1002464        9.729951        0.1002465        9.730041        0.2145746        107.1248
4.782                  0.2168775        106.9614       0.09595818         10.6787       0.09595824        10.67879        0.2168779        106.9615
4.7834                 0.2191963        106.7626       0.09184288        11.83473       0.09184295        11.83482        0.2191967        106.7626
4.7848                 0.2215234        106.5287       0.08792556         13.2139       0.08792565        13.21399        0.2215238        106.5288
4.7862                 0.2238516        106.2605       0.08423329        14.83069       0.08423339        14.83077         0.223852        106.2606
4.7876                 0.2261737        105.9587       0.08079501        16.69686       0.08079512        16.69693        0.2261742        105.9588
4.789                  0.2284831        105.6242        0.0776411         18.8198       0.07764123        18.81986        0.2284835        105.6243
4.7904                 0.2307729        105.2579       0.07480273        21.20047       0.07480285        21.20053        0.2307733         105.258
4.7918                 0.2330366        104.8606       0.07231072        23.83129       0.07231084        23.83134         0.233037        104.8607
4.7932                 0.2352681        104.4334       0.07019411        26.69413       0.07019424        26.69416        0.2352685        104.4334
4.7946                 0.2374612        103.9772       0.06847837        29.75899        0.0684785        29.75902        0.2374616        103.9773
4.796                  0.2396101        103.4931       0.06718344        32.98384       0.06718356        32.98385        0.2396105        103.4932
4.7974                 0.2417093        102.9821       0.06632187        36.31595       0.06632199        36.31595        0.2417097        102.9822
4.7988                 0.2437535        102.4453       0.06589737        39.69502       0.06589749          39.695        0.2437539        102.4454
4.8002                 0.2457376        101.8836       0.06590406        43.05759       0.06590418        43.05756         0.245738        101.8837
4.8016                 0.2476569        101.2982       0.06632662         46.3421       0.06632673        46.34207        0.2476573        101.2982
4.803                  0.2495068          100.69       0.06714138        49.49359       0.06714148        49.49353        0.2495072          100.69
4.8044                 0.2512831          100.06         0.068318        52.46706       0.06831807        52.46702        0.2512835          100.06
4.8058                 0.2529818        99.40927       0.06982155         55.2295       0.06982163        55.22943        0.2529822        99.40932
4.8072                 0.2545992        98.73877       0.07161476        57.75983       0.07161482        57.75977        0.2545995        98.73881
4.8086                 0.2561318        98.04941       0.07365974        60.04801        0.0736598        60.04794        0.2561321        98.04946
4.81                   0.2575764        97.34221       0.07591958        62.09306       0.07591961          62.093        0.2575768        97.34227
4.8114                 0.2589301        96.61803       0.07835936        63.90098       0.07835938        63.90091        0.2589304        96.61808
4.8128                 0.2601902        95.87778       0.08094681        65.48261       0.08094683        65.48254        0.2601905        95.87783
4.8142                 0.2613543        95.12235       0.08365267        66.85192       0.08365267        66.85186        0.2613546         95.1224
4.8156                 0.2624202        94.35255       0.08645067        68.02458       0.08645068        68.02452        0.2624206         94.3526
4.817                   0.263386        93.56925       0.08931757        69.01684       0.08931756        69.01678        0.2633863        93.56929
4.8184                   0.26425        92.77321       0.09223286        69.84486       0.09223284        69.84482        0.2642503        92.77326
4.8198                 0.2650109        91.96524       0.09517858        70.52422       0.09517856        70.52418        0.2650111         91.9653
4.8212                 0.2656672         91.1461       0.09813911        71.06957       0.09813908        71.06952        0.2656675        91.14615
4.8226                 0.2662181         90.3165        0.1011008        71.49451        0.1011008        71.49447        0.2662184        90.31655
4.824                  0.2666629        89.47718         0.104052        71.81158        0.1040519        71.81155        0.2666632        89.47723
4.8254                  0.267001        88.62881        0.1069823        72.03216        0.1069822        72.03212        0.2670012        88.62886
4.8268                  0.267232        87.77209         0.109883        72.16661         0.109883        72.16657        0.2672323        87.77214
4.8282                  0.267356        86.90762        0.1127467        72.22428        0.1127467        72.22426        0.2673562        86.90768
4.8296                 0.2673729        86.03609        0.1155668        72.21363        0.1155667        72.21361        0.2673731        86.03614
4.831                  0.2672831        85.15805        0.1183379        72.14224        0.1183378        72.14222        0.2672833         85.1581
4.8324                 0.2670871        84.27412        0.1210553        72.01697        0.1210552        72.01695        0.2670873        84.27417
4.8338                 0.2667855        83.38488        0.1237152        71.84398        0.1237151        71.84398        0.2667857        83.38492
4.8352                 0.2663792        82.49086        0.1263144        71.62885        0.1263143        71.62884        0.2663794        82.49091
4.8366                 0.2658693         81.5926        0.1288503        71.37657        0.1288503        71.37657        0.2658694        81.59265
4.838                  0.2652569        80.69061        0.1313211        71.09166         0.131321        71.09166        0.2652571        80.69066
4.8394                 0.2645434        79.78541        0.1337251        70.77822         0.133725        70.77822        0.2645435        79.78546
4.8408                 0.2637303        78.87746        0.1360613        70.43996        0.1360612        70.43995        0.2637305        78.87751
4.8422                 0.2628194         77.9672        0.1383291        70.08017         0.138329        70.08018        0.2628195        77.96726
4.8436                 0.2618122        77.05512        0.1405282        69.70194        0.1405282        69.70194        0.2618123        77.05517
4.845                  0.2607109        76.14161        0.1426588        69.30797        0.1426587        69.30798         0.260711        76.14167
4.8464                 0.2595175         75.2271        0.1447212        68.90077        0.1447212        68.90078        0.2595175        75.22716
4.8478                 0.2582341        74.31196        0.1467162         68.4826        0.1467162         68.4826        0.2582341        74.31202
4.8492                  0.256863        73.39658        0.1486448        68.05547        0.1486447         68.0555         0.256863        73.39663
4.8506                 0.2554066        72.48132        0.1505081        67.62129        0.1505081        67.62132        0.2554066        72.48138
4.852                  0.2538674         71.5665        0.1523077         67.1817        0.1523076        67.18171        0.2538673        71.56655
4.8534                 0.2522479        70.65244        0.1540451        66.73822         0.154045        66.73825        0.2522478        70.65251
4.8548                 0.2505507        69.73945        0.1557222        66.29222        0.1557222        66.29224        0.2505507        69.73951
4.8562                 0.2487787        68.82781        0.1573411        65.84492        0.1573411        65.84495        0.2487786        68.82788
4.8576                 0.2469344        67.91779        0.1589039        65.39743        0.1589038        65.39744        0.2469344        67.91786
4.859                  0.2450208        67.00962        0.1604128         64.9507        0.1604128        64.95073        0.2450207        67.00968
4.8604                 0.2430407        66.10352        0.1618704         64.5056        0.1618704        64.50562        0.2430406         66.1036
4.8618                 0.2409969         65.1997        0.1632791         64.0629        0.1632791        64.06291        0.2409967        65.19979
4.8632                 0.2388924        64.29836        0.1646415        63.62323        0.1646415        63.62324        0.2388922        64.29845
4.8646                   0.23673        63.39963        0.1659603        63.18715        0.1659603        63.18716        0.2367299        63.39971
4.866                  0.2345128        62.50366        0.1672382        62.75512        0.1672381        62.75515        0.2345126        62.50375
4.8674                 0.2322436        61.61057        0.1684779        62.32753        0.1684779        62.32756        0.2322434        61.61066
4.8688                 0.2299254        60.72046        0.1696823        61.90468        0.1696823        61.90469        0.2299252        60.72053
4.8702                  0.227561        59.83337         0.170854        61.48676         0.170854        61.48677        0.2275608        59.83344
4.8716                 0.2251534        58.94935         0.171996        61.07392         0.171996        61.07395        0.2251532        58.94944