! TOUCHSTONE file generated by CST MICROWAVE STUDIO
! Date and time: Sun Dec  1 17:26:33 2024
! Project name: test_tuning.cst
! Parameters = {airCoaxOuterDiameter=3; chamferAngle=45; chamferWidth=10; connectorLength=10; drillingHoleDiameter=4.1; feedLength=60; flareDiameter=130; flareLength=70; gratingDistance=0; gratingGap=1.90274; outletLength=30; polarizerLength=134; probe1Diameter=1.3; probe1Distance=14; probe1Length=12; probe2Diameter=1.3; probe2Distance=0; probe2Length=12; probeLength=12; smaInnerDiameter=1.3; smaOuterDiameter=4.1; transitionCoefficient=1.33; waveguideFeedLength=30; waveguideSide=50; waveguideThickness=3; wireCount=25; wireDiameter=1.17699}
! Header version: 2024
! Port assignment regex: !\s*Touchstone port\s*([0-9]+)\s*=\s*(CST MWS port|CST DES external port|CST DES block port)\s*(.+)\s* \(\"(.*)\"\)(\s*mode\s*([0-9]+))?.*
! Touchstone port assignment:
! Touchstone port 1 = CST MWS port 1 ("Input1")
! Touchstone port 2 = CST MWS port 2 ("Input2")
# GHz S MA R 50
4.6                    0.3968922        108.0032        0.1644728        50.85299        0.1644732         50.8531        0.3968903        108.0028
4.6014                 0.3973334        107.1805        0.1622818        50.94779        0.1622822        50.94792        0.3973314        107.1802
4.6028                  0.397595        106.3632        0.1601514        51.06417        0.1601519        51.06429         0.397593        106.3628
4.6042                 0.3976809        105.5518        0.1580804        51.20156        0.1580809        51.20168        0.3976789        105.5515
4.6056                 0.3975949        104.7469        0.1560675        51.35952         0.156068        51.35963        0.3975929        104.7466
4.607                  0.3973415        103.9493        0.1541111        51.53766        0.1541116        51.53777        0.3973394         103.949
4.6084                 0.3969249        103.1595        0.1522098        51.73572        0.1522103        51.73582        0.3969229        103.1592
4.6098                 0.3963502        102.3781        0.1503622        51.95352        0.1503628        51.95361        0.3963482        102.3778
4.6112                 0.3956223        101.6057        0.1485669        52.19099        0.1485675        52.19107        0.3956203        101.6054
4.6126                 0.3947463        100.8428        0.1468227        52.44815        0.1468232        52.44823        0.3947444        100.8425
4.614                  0.3937279          100.09        0.1451283        52.72516        0.1451289        52.72523         0.393726        100.0897
4.6154                 0.3925727        99.34778         0.143483        53.02224        0.1434835        53.02231        0.3925708        99.34757
4.6168                 0.3912866        98.61675        0.1418859        53.33973        0.1418865        53.33979        0.3912847        98.61655
4.6182                 0.3898756        97.89733        0.1403367        53.67806        0.1403373        53.67811        0.3898737        97.89716
4.6196                 0.3883461        97.19005        0.1388352        54.03771        0.1388358        54.03775        0.3883443        97.18988
4.621                  0.3867046        96.49533        0.1373816        54.41925        0.1373822        54.41927        0.3867028        96.49516
4.6224                 0.3849575        95.81359        0.1359765        54.82325        0.1359771        54.82327        0.3849557        95.81344
4.6238                 0.3831117        95.14525        0.1346207        55.25036        0.1346214        55.25034          0.38311        95.14512
4.6252                 0.3811741        94.49066        0.1333156        55.70115        0.1333162        55.70113        0.3811724        94.49054
4.6266                 0.3791514        93.85018        0.1320627        56.17622        0.1320634        56.17619        0.3791498        93.85006
4.628                   0.377051        93.22408        0.1308643        56.67611        0.1308649        56.67606        0.3770494        93.22395
4.6294                 0.3748797        92.61263        0.1297226        57.20122        0.1297232        57.20117        0.3748782        92.61252
4.6308                 0.3726448        92.01605        0.1286406        57.75187        0.1286412         57.7518        0.3726433        92.01596
4.6322                 0.3703534        91.43454        0.1276214         58.3282         0.127622        58.32812         0.370352        91.43443
4.6336                 0.3680127        90.86818        0.1266686        58.93016        0.1266691        58.93008        0.3680113        90.86807
4.635                  0.3656297        90.31705        0.1257858        59.55749        0.1257864        59.55737        0.3656283        90.31696
4.6364                 0.3632114        89.78119        0.1249772        60.20962        0.1249778        60.20949          0.36321        89.78111
4.6378                 0.3607648        89.26055        0.1242471        60.88572        0.1242476        60.88557        0.3607634        89.26047
4.6392                 0.3582966        88.75503        0.1235997        61.58464        0.1236002        61.58448        0.3582952        88.75496
4.6406                 0.3558134        88.26448        0.1230395        62.30485          0.12304        62.30468        0.3558121        88.26438
4.642                  0.3533217        87.78862        0.1225711        63.04451        0.1225715        63.04432        0.3533204        87.78855
4.6434                 0.3508276        87.32719        0.1221987        63.80135        0.1221991        63.80115        0.3508264        87.32712
4.6448                 0.3483371        86.87981        0.1219265        64.57279        0.1219269        64.57259        0.3483359        86.87974
4.6462                 0.3458559        86.44606        0.1217586        65.35586         0.121759        65.35564        0.3458547        86.44598
4.6476                 0.3433892        86.02541        0.1216985        66.14726        0.1216989        66.14704         0.343388        86.02533
4.649                   0.340942        85.61728        0.1217495        66.94339        0.1217498        66.94314        0.3409408        85.61721
4.6504                 0.3385188        85.22104        0.1219144        67.74039        0.1219147        67.74014        0.3385176        85.22097
4.6518                 0.3361239        84.83594        0.1221953        68.53419        0.1221956        68.53392        0.3361227        84.83587
4.6532                  0.333761        84.46123        0.1225939        69.32056        0.1225941         69.3203        0.3337598        84.46115
4.6546                 0.3314332        84.09603        0.1231111        70.09521        0.1231113        70.09493         0.331432        84.09596
4.656                  0.3291435        83.73947        0.1237471        70.85381        0.1237472        70.85355        0.3291423         83.7394
4.6574                 0.3268941        83.39056        0.1245015        71.59212        0.1245016        71.59184        0.3268928        83.39049
4.6588                 0.3246867         83.0483         0.125373        72.30595         0.125373        72.30569        0.3246853        83.04823
4.6602                 0.3225224        82.71165        0.1263597        72.99139        0.1263598        72.99113        0.3225211         82.7116
4.6616                 0.3204021        82.37952        0.1274591        73.64472        0.1274591        73.64446        0.3204008        82.37948
4.663                  0.3183259        82.05079        0.1286677        74.26252        0.1286677        74.26226        0.3183246        82.05075
4.6644                 0.3162933        81.72435        0.1299817        74.84169        0.1299816        74.84145         0.316292        81.72429
4.6658                 0.3143034        81.39901        0.1313964        75.37952        0.1313963        75.37927        0.3143021        81.39897
4.6672                 0.3123548        81.07364        0.1329067        75.87368        0.1329066        75.87345        0.3123534        81.07361
4.6686                 0.3104454         80.7471        0.1345072        76.32223         0.134507          76.322        0.3104441        80.74709
4.67                   0.3085728        80.41827        0.1361916        76.72358        0.1361914        76.72337        0.3085713        80.41825
4.6714                 0.3067339        80.08601        0.1379537         77.0766        0.1379535        77.07641        0.3067324          80.086
4.6728                 0.3049253        79.74925        0.1397868         77.3805        0.1397866         77.3803        0.3049238        79.74924
4.6742                  0.303143        79.40696        0.1416839        77.63481        0.1416836        77.63465        0.3031416        79.40697
4.6756                 0.3013829        79.05813        0.1436378        77.83945        0.1436375        77.83929        0.3013815        79.05815
4.677                  0.2996403        78.70183        0.1456414        77.99458        0.1456411         77.9944        0.2996388        78.70185
4.6784                 0.2979102        78.33715        0.1476873        78.10066        0.1476869        78.10049        0.2979086         78.3372
4.6798                 0.2961871        77.96331         0.149768        78.15837        0.1497677        78.15822        0.2961856        77.96335
4.6812                 0.2944656        77.57953        0.1518763        78.16865        0.1518759        78.16851        0.2944642        77.57959
4.6826                   0.29274        77.18513        0.1540047        78.13257        0.1540043        78.13245        0.2927385         77.1852
4.684                  0.2910041        76.77953         0.156146        78.05139        0.1561456        78.05128        0.2910026        76.77964
4.6854                 0.2892519        76.36222        0.1582931        77.92647        0.1582927        77.92636        0.2892504        76.36232
4.6868                 0.2874771        75.93274        0.1604389        77.75932        0.1604385        77.75923        0.2874756        75.93286
4.6882                 0.2856734        75.49078        0.1625766         77.5515        0.1625762        77.55142        0.2856719         75.4909
4.6896                 0.2838344        75.03603        0.1646994        77.30464         0.164699        77.30457         0.283833        75.03617
4.691                   0.281954        74.56836        0.1668009        77.02045        0.1668005         77.0204        0.2819525        74.56851
4.6924                 0.2800256        74.08764        0.1688748        76.70066        0.1688743         76.7006        0.2800242        74.08782
4.6938                 0.2780432        73.59391        0.1709149        76.34698        0.1709145        76.34694        0.2780418         73.5941
4.6952                 0.2760006        73.08724        0.1729155        75.96124        0.1729151         75.9612        0.2759992        73.08743
4.6966                 0.2738919         72.5678         0.174871        75.54515        0.1748705        75.54513        0.2738905          72.568
4.698                  0.2717112        72.03584        0.1767759        75.10053        0.1767755         75.1005        0.2717099        72.03607
4.6994                  0.269453        71.49173        0.1786253        74.62911        0.1786249        74.62908        0.2694518        71.49197
4.7008                  0.267112        70.93589        0.1804142        74.13263        0.1804139        74.13261        0.2671108        70.93614
4.7022                  0.264683        70.36884        0.1821383        73.61283        0.1821379        73.61283        0.2646818         70.3691
4.7036                 0.2621612        69.79117        0.1837931        73.07142        0.1837927        73.07142        0.2621601        69.79144
4.705                  0.2595419         69.2036        0.1853747         72.5101        0.1853743         72.5101        0.2595409        69.20387
4.7064                 0.2568212        68.60688        0.1868794        71.93054         0.186879        71.93054        0.2568202        68.60718
4.7078                  0.253995        68.00187        0.1883038        71.33436        0.1883034        71.33439        0.2539941        68.00218
4.7092                 0.2510598        67.38956        0.1896448        70.72322        0.1896444        70.72323         0.251059        67.38986
4.7106                 0.2480125        66.77096        0.1908995        70.09869        0.1908992        70.09871        0.2480117        66.77131
4.712                  0.2448502        66.14726        0.1920655        69.46233        0.1920652        69.46236        0.2448495        66.14759
4.7134                 0.2415706        65.51972        0.1931406        68.81575        0.1931403         68.8158          0.24157        65.52005
4.7148                 0.2381717        64.88968        0.1941229        68.16049        0.1941226        68.16052        0.2381711        64.89003
4.7162                 0.2346519        64.25863        0.1950108        67.49801        0.1950105        67.49804        0.2346514        64.25899
4.7176                 0.2310101        63.62821        0.1958031        66.82983        0.1958028        66.82988        0.2310096        63.62856
4.719                  0.2272456        63.00016        0.1964987        66.15745        0.1964984        66.15751        0.2272452        63.00051
4.7204                 0.2233582        62.37635        0.1970971        65.48236        0.1970969        65.48239        0.2233579        62.37676
4.7218                 0.2193481        61.75894         0.197598        64.80597        0.1975978        64.80603        0.2193478        61.75933
4.7232                  0.215216        61.15015        0.1980015        64.12976        0.1980013        64.12979        0.2152158        61.15051
4.7246                 0.2109632        60.55242        0.1983078        63.45513        0.1983076        63.45516         0.210963         60.5528
4.726                  0.2065913        59.96851        0.1985176        62.78345        0.1985174         62.7835        0.2065913        59.96892
4.7274                 0.2021027        59.40141         0.198632        62.11622        0.1986318         62.1163        0.2021027        59.40182
4.7288                 0.1975001        58.85443        0.1986523        61.45481        0.1986521        61.45484        0.1975002        58.85484
4.7302                 0.1927869        58.33114        0.1985801        60.80053          0.19858        60.80062         0.192787        58.33152
4.7316                 0.1879672         57.8356        0.1984175        60.15487        0.1984174        60.15492        0.1879674        57.83597
4.733                  0.1830455        57.37225        0.1981667         59.5191        0.1981666        59.51915        0.1830457        57.37263
4.7344                 0.1780272        56.94615        0.1978303        58.89457        0.1978302        58.89465        0.1780275        56.94652
4.7358                 0.1729185        56.56286        0.1974115        58.28266        0.1974114        58.28271        0.1729188        56.56323
4.7372                  0.167726        56.22872        0.1969133        57.68465        0.1969132        57.68469        0.1677264        56.22906
4.7386                 0.1624578        55.95081        0.1963393        57.10182        0.1963393        57.10188        0.1624582        55.95116
4.74                   0.1571225        55.73717        0.1956936        56.53545        0.1956935        56.53551        0.1571229        55.73751
4.7414                   0.15173        55.59693        0.1949802        55.98679        0.1949802        55.98687        0.1517305        55.59727
4.7428                 0.1462916        55.54052        0.1942037        55.45706        0.1942036        55.45714        0.1462921        55.54086
4.7442                 0.1408198        55.57975        0.1933687         54.9474        0.1933687        54.94746        0.1408203        55.58006
4.7456                 0.1353289        55.72819        0.1924804        54.45899        0.1924804        54.45902        0.1353295        55.72849
4.747                  0.1298353        56.00131         0.191544        53.99286         0.191544        53.99289        0.1298359        56.00158
4.7484                 0.1243575        56.41683        0.1905651        53.55004        0.1905651         53.5501        0.1243581        56.41709
4.7498                 0.1189168        56.99499        0.1895494        53.13153        0.1895495        53.13156        0.1189174        56.99523
4.7512                 0.1135377        57.75869        0.1885029        52.73812         0.188503        52.73818        0.1135383        57.75889
4.7526                 0.1082486        58.73373        0.1874319        52.37064        0.1874319        52.37072        0.1082492        58.73393
4.754                  0.1030824        59.94896        0.1863425        52.02983        0.1863425        52.02986        0.1030829        59.94912
4.7554                0.09807694        61.43573        0.1852413        51.71624        0.1852413        51.71627       0.09807748        61.43582
4.7568                0.09327639        63.22731        0.1841348         51.4303        0.1841349        51.43033        0.0932769        63.22737
4.7582                0.08873137        65.35721        0.1830298        51.17239        0.1830299        51.17242       0.08873187        65.35727
4.7596                0.08449965        67.85673         0.181933        50.94263         0.181933        50.94269       0.08450012        67.85675
4.761                 0.08064583        70.75072         0.180851        50.74117        0.1808511         50.7412       0.08064624        70.75067
4.7624                0.07724027        74.05192        0.1797907        50.56775        0.1797908        50.56775       0.07724062        74.05183
4.7638                0.07435659        77.75417        0.1787586        50.42213        0.1787586        50.42213       0.07435686        77.75405
4.7652                 0.0720674        81.82535        0.1777612        50.30375        0.1777613        50.30377       0.07206761         81.8252
4.7666                0.07043832        86.20215         0.176805        50.21194        0.1768051        50.21196       0.07043846        86.20199
4.768                 0.06952089        90.78991        0.1758961        50.14581        0.1758962        50.14581       0.06952093        90.78972
4.7694                 0.0693458        95.46886        0.1750405        50.10421        0.1750405        50.10422       0.06934577        95.46872
4.7708                0.06991845        100.1075        0.1742436        50.08587        0.1742437        50.08588       0.06991835        100.1073
4.7722                0.07121806        104.5788        0.1735109        50.08924        0.1735109        50.08925        0.0712179        104.5787
4.7736                0.07320077        108.7762        0.1728471        50.11263        0.1728471        50.11263       0.07320054        108.7761
4.775                 0.07580561        112.6223        0.1722567        50.15413        0.1722568        50.15413       0.07580537        112.6223
4.7764                0.07896178        116.0717        0.1717436        50.21167        0.1717437        50.21166       0.07896151        116.0717
4.7778                 0.0825951        119.1078        0.1713114          50.283        0.1713114        50.28299       0.08259482        119.1079
4.7792                0.08663318         121.736        0.1709627        50.36578        0.1709627        50.36577       0.08663289        121.7361
4.7806                0.09100858        123.9765        0.1706999        50.45751           0.1707        50.45749       0.09100831        123.9767
4.782                 0.09566045        125.8584        0.1705248        50.55563        0.1705248        50.55561       0.09566019        125.8586
4.7834                 0.1005351        127.4144        0.1704382        50.65751        0.1704383        50.65749        0.1005349        127.4147
4.7848                 0.1055857        128.6782        0.1704408        50.76049        0.1704408        50.76048        0.1055855        128.6785
4.7862                 0.1107719        129.6819        0.1705322        50.86192        0.1705322         50.8619        0.1107717        129.6822
4.7876                 0.1160586        130.4554        0.1707117        50.95917        0.1707117        50.95915        0.1160585        130.4557
4.789                  0.1214159        131.0257        0.1709778        51.04967        0.1709778        51.04965        0.1214158         131.026
4.7904                 0.1268177        131.4168        0.1713285        51.13095        0.1713285        51.13093        0.1268176        131.4171
4.7918                 0.1322415          131.65        0.1717613        51.20064        0.1717613        51.20061        0.1322414        131.6503
4.7932                 0.1376676        131.7438         0.172273         51.2565         0.172273        51.25648        0.1376676        131.7441
4.7946                 0.1430788        131.7144          0.17286        51.29647          0.17286        51.29644        0.1430788        131.7147
4.796                    0.14846        131.5762        0.1735184        51.31864        0.1735184        51.31862        0.1484601        131.5765
4.7974                 0.1537978        131.3414        0.1742436        51.32129        0.1742436        51.32127        0.1537979        131.3417
4.7988                 0.1590803        131.0208        0.1750309        51.30288        0.1750308        51.30287        0.1590805        131.0211
4.8002                 0.1642969         130.624        0.1758751         51.2621        0.1758751        51.26209        0.1642971        130.6243
4.8016                  0.169438        130.1592         0.176771        51.19781        0.1767709         51.1978        0.1694383        130.1595
4.803                  0.1744952        129.6337        0.1777128        51.10907        0.1777128        51.10905        0.1744956         129.634
4.8044                 0.1794607        129.0539         0.178695        50.99515         0.178695        50.99513        0.1794611        129.0542
4.8058                 0.1843276        128.4256        0.1797116         50.8555        0.1797116        50.85548         0.184328        128.4259
4.8072                 0.1890896        127.7537        0.1807566        50.68975        0.1807566        50.68972        0.1890901         127.754
4.8086                 0.1937409        127.0427        0.1818242        50.49767        0.1818242        50.49767        0.1937415         127.043
4.81                   0.1982766        126.2967        0.1829083        50.27927        0.1829083        50.27925        0.1982772        126.2969
4.8114                  0.202692        125.5191         0.184003        50.03463         0.184003        50.03462        0.2026926        125.5194
4.8128                 0.2069829        124.7133        0.1851024        49.76398        0.1851024        49.76398        0.2069836        124.7135
4.8142                 0.2111456         123.882        0.1862008        49.46771        0.1862007        49.46771        0.2111463        123.8822
4.8156                 0.2151767        123.0279        0.1872925        49.14629        0.1872924        49.14628        0.2151775        123.0281
4.817                  0.2190734        122.1534        0.1883719        48.80029        0.1883719        48.80028        0.2190742        122.1536
4.8184                 0.2228331        121.2607        0.1894338        48.43038        0.1894338        48.43038        0.2228339        121.2608
4.8198                 0.2264535        120.3516         0.190473         48.0373         0.190473         48.0373        0.2264543        120.3518
4.8212                 0.2299328        119.4279        0.1914846        47.62188        0.1914845        47.62187        0.2299336        119.4281
4.8226                 0.2332692        118.4914        0.1924636        47.18496        0.1924636        47.18496        0.2332701        118.4916
4.824                  0.2364617        117.5435        0.1934058        46.72747        0.1934057        46.72747        0.2364626        117.5437
4.8254                 0.2395091        116.5856        0.1943067        46.25037        0.1943067        46.25037          0.23951        116.5857
4.8268                 0.2424108         115.619        0.1951624        45.75466        0.1951623        45.75466        0.2424117        115.6191
4.8282                 0.2451662        114.6448        0.1959689        45.24134        0.1959688        45.24135        0.2451672         114.645
4.8296                 0.2477753        113.6642        0.1967228        44.71148        0.1967227        44.71149        0.2477763        113.6644
4.831                  0.2502381        112.6783        0.1974207        44.16614        0.1974207        44.16614         0.250239        112.6784
4.8324                 0.2525548        111.6878        0.1980597        43.60638        0.1980596        43.60639        0.2525558         111.688
4.8338                 0.2547261        110.6938        0.1986369        43.03329        0.1986368         43.0333        0.2547271         110.694
4.8352                 0.2567527        109.6971        0.1991498        42.44798        0.1991497        42.44798        0.2567537        109.6972
4.8366                 0.2586357        108.6985        0.1995961        41.85152        0.1995961        41.85152        0.2586367        108.6986
4.838                  0.2603763        107.6986        0.1999739        41.24501        0.1999739        41.24501        0.2603772        107.6987
4.8394                 0.2619758        106.6982        0.2002815        40.62955        0.2002814        40.62956        0.2619767        106.6982
4.8408                 0.2634359        105.6978        0.2005172        40.00623        0.2005172        40.00624        0.2634368        105.6979
4.8422                 0.2647584        104.6983          0.20068        39.37615          0.20068        39.37616        0.2647594        104.6983
4.8436                 0.2659453        103.6999        0.2007688        38.74038        0.2007688        38.74039        0.2659463           103.7
4.845                  0.2669988        102.7034         0.200783        38.09999         0.200783        38.10001        0.2669997        102.7034
4.8464                 0.2679212        101.7091        0.2007221        37.45607         0.200722        37.45609        0.2679221        101.7092
4.8478                  0.268715        100.7177        0.2005858        36.80968        0.2005858        36.80969        0.2687159        100.7177
4.8492                 0.2693828        99.72937        0.2003742        36.16185        0.2003741        36.16186        0.2693837         99.7294
4.8506                 0.2699274         98.7447        0.2000875        35.51366        0.2000874        35.51368        0.2699282        98.74471
4.852                  0.2703516        97.76401        0.1997262        34.86613        0.1997262        34.86614        0.2703525        97.76401
4.8534                 0.2706586        96.78763         0.199291        34.22029         0.199291         34.2203        0.2706594        96.78765
4.8548                 0.2708514        95.81593        0.1987829        33.57716        0.1987829        33.57717        0.2708521        95.81592
4.8562                 0.2709332        94.84915        0.1982031        32.93775        0.1982031        32.93776        0.2709339        94.84914
4.8576                 0.2709073        93.88758        0.1975528        32.30306        0.1975528        32.30307         0.270908        93.88759
4.859                  0.2707771        92.93148        0.1968338        31.67407        0.1968338        31.67408        0.2707778        92.93147
4.8604                 0.2705461        91.98104        0.1960477        31.05176        0.1960477        31.05177        0.2705467        91.98103
4.8618                 0.2702177        91.03647        0.1951964         30.4371        0.1951965        30.43711        0.2702183        91.03646
4.8632                 0.2697955        90.09793        0.1942823        29.83103        0.1942823        29.83103         0.269796        90.09792
4.8646                  0.269283        89.16553        0.1933076        29.23448        0.1933076        29.23449        0.2692835        89.16552
4.866                  0.2686839        88.23944        0.1922747        28.64839        0.1922747         28.6484        0.2686844        88.23941
4.8674                 0.2680017        87.31969        0.1911864        28.07364        0.1911864        28.07365        0.2680021        87.31966
4.8688                   0.26724        86.40636        0.1900455        27.51112        0.1900455        27.51113        0.2672404        86.40634
4.8702                 0.2664023        85.49948        0.1888549         26.9617        0.1888549        26.96171        0.2664027        85.49946
4.8716                 0.2654925        84.59906        0.1876177        26.42622        0.1876177        26.42623        0.2654927        84.59904