! TOUCHSTONE file generated by CST MICROWAVE STUDIO
! Date and time: Sat Nov 30 03:28:49 2024
! Project name: test_tuning.cst
! Parameters = {airCoaxOuterDiameter=3; chamferAngle=45; chamferWidth=26; connectorLength=10; drillingHoleDiameter=4.1; feedLength=60; flareDiameter=130; flareLength=70; gratingDistance=0; gratingGap=1.90274; outletLength=30; polarizerLength=134; probe1Diameter=1.3; probe1Distance=14; probe1Length=12; probe2Diameter=1.3; probe2Distance=0; probe2Length=12; probeLength=12; smaInnerDiameter=1.3; smaOuterDiameter=4.1; transitionCoefficient=1.33; waveguideFeedLength=30; waveguideSide=50; waveguideThickness=3; wireCount=25; wireDiameter=1.17699}
! Header version: 2024
! Port assignment regex: !\s*Touchstone port\s*([0-9]+)\s*=\s*(CST MWS port|CST DES external port|CST DES block port)\s*(.+)\s* \(\"(.*)\"\)(\s*mode\s*([0-9]+))?.*
! Touchstone port assignment:
! Touchstone port 1 = CST MWS port 1 ("Input1")
! Touchstone port 2 = CST MWS port 2 ("Input2")
# GHz S MA R 50
4.6                    0.1780795       -161.6702        0.6077586        74.32863        0.6077583        74.32863        0.1780794       -161.6702
4.6014                 0.1827039       -162.1856        0.6095141        73.64964        0.6095138        73.64964        0.1827039       -162.1856
4.6028                 0.1874416       -162.7033        0.6113166        72.96135        0.6113163        72.96136        0.1874416       -162.7033
4.6042                 0.1922873       -163.2283        0.6131555        72.26261        0.6131553        72.26261        0.1922873       -163.2283
4.6056                 0.1972331       -163.7647         0.615018        71.55247        0.6150176        71.55247        0.1972332       -163.7646
4.607                  0.2022687       -164.3154        0.6168895        70.83026        0.6168891        70.83028        0.2022688       -164.3153
4.6084                 0.2073819       -164.8824        0.6187546        70.09558        0.6187543        70.09559        0.2073821       -164.8824
4.6098                 0.2125591        -165.467        0.6205976        69.34826        0.6205972        69.34828        0.2125593        -165.467
4.6112                  0.217786       -166.0693        0.6224027        68.58846        0.6224022        68.58846        0.2177864       -166.0693
4.6126                 0.2230481       -166.6888        0.6241549         67.8165        0.6241545        67.81652        0.2230485       -166.6888
4.614                  0.2283312       -167.3243        0.6258407        67.03301        0.6258404        67.03304        0.2283317       -167.3243
4.6154                 0.2336219        -167.974        0.6274481        66.23873        0.6274477        66.23876        0.2336225        -167.974
4.6168                 0.2389084       -168.6358        0.6289673        65.43459        0.6289669        65.43461         0.238909       -168.6358
4.6182                 0.2441804       -169.3073        0.6303906        64.62158        0.6303902        64.62161         0.244181       -169.3073
4.6196                 0.2494297       -169.9858        0.6317129        63.80078        0.6317125        63.80079        0.2494304       -169.9858
4.621                  0.2546505       -170.6687        0.6329318        62.97321        0.6329315        62.97324        0.2546513       -170.6687
4.6224                 0.2598392       -171.3536        0.6340473        62.13993        0.6340469        62.13995          0.25984       -171.3536
4.6238                 0.2649949        -172.038        0.6350615        61.30183        0.6350612        61.30187        0.2649957        -172.038
4.6252                 0.2701188       -172.7197        0.6359789        60.45974        0.6359786        60.45977        0.2701197       -172.7198
4.6266                 0.2752146       -173.3971        0.6368055        59.61428        0.6368052        59.61432        0.2752154       -173.3972
4.628                  0.2802877       -174.0688        0.6375488        58.76589        0.6375485        58.76592        0.2802886       -174.0688
4.6294                 0.2853455       -174.7336        0.6382169        57.91482        0.6382167        57.91486        0.2853464       -174.7336
4.6308                 0.2903967       -175.3911        0.6388185        57.06108        0.6388183        57.06111        0.2903975       -175.3911
4.6322                 0.2954506       -176.0411         0.639362        56.20445        0.6393618        56.20449        0.2954515       -176.0412
4.6336                 0.3005174        -176.684        0.6398549        55.34453        0.6398547        55.34457        0.3005182       -176.6841
4.635                   0.305607       -177.3205        0.6403035         54.4807        0.6403033        54.48073        0.3056078       -177.3206
4.6364                  0.310729       -177.9517        0.6407127        53.61215        0.6407126        53.61218        0.3107298       -177.9518
4.6378                 0.3158921       -178.5789        0.6410849        52.73796        0.6410849          52.738        0.3158929        -178.579
4.6392                 0.3211039       -179.2038        0.6414203        51.85711        0.6414204        51.85714        0.3211045       -179.2039
4.6406                 0.3263701        -179.828        0.6417164        50.96849        0.6417164        50.96852        0.3263707       -179.8281
4.642                   0.331695        179.5465        0.6419678        50.07102        0.6419678        50.07105        0.3316956        179.5464
4.6434                 0.3370807         178.918        0.6421663        49.16364        0.6421664        49.16367        0.3370813        178.9179
4.6448                 0.3425275        178.2846        0.6423012        48.24539        0.6423013        48.24541         0.342528        178.2845
4.6462                 0.3480335        177.6447        0.6423591        47.31543        0.6423592        47.31546        0.3480339        177.6446
4.6476                 0.3535949        176.9969        0.6423244        46.37311        0.6423245        46.37314        0.3535953        176.9968
4.649                  0.3592065          176.34        0.6421796          45.418        0.6421797        45.41802         0.359207        176.3399
4.6504                 0.3648615        175.6729         0.641906        44.44988        0.6419061        44.44989        0.3648619        175.6729
4.6518                  0.370552        174.9952        0.6414838        43.46881        0.6414838        43.46883        0.3705524        174.9952
4.6532                 0.3762694        174.3064         0.640893        42.47514        0.6408931        42.47515        0.3762698        174.3063
4.6546                 0.3820048        173.6064        0.6401138        41.46947        0.6401138        41.46949        0.3820052        173.6063
4.656                  0.3877492        172.8953        0.6391271        40.45274        0.6391272        40.45274        0.3877496        172.8953
4.6574                 0.3934941        172.1737        0.6379155        39.42607        0.6379156        39.42609        0.3934945        172.1736
4.6588                 0.3992318        171.4419         0.636463        38.39094        0.6364631        38.39094        0.3992322        171.4419
4.6602                 0.4049554        170.7009        0.6347562        37.34899        0.6347563        37.34899        0.4049558        170.7008
4.6616                 0.4106594        169.9512        0.6327846        36.30208        0.6327846        36.30209        0.4106598        169.9512
4.663                  0.4163397        169.1939        0.6305404        35.25227        0.6305404        35.25227        0.4163402        169.1938
4.6644                 0.4219937        168.4296        0.6280193        34.20174        0.6280194        34.20174        0.4219943        168.4295
4.6658                 0.4276205        167.6591        0.6252208        33.15277        0.6252208        33.15278         0.427621        167.6591
4.6672                 0.4332202        166.8831        0.6221478        32.10772        0.6221477        32.10773        0.4332208        166.8831
4.6686                 0.4387947        166.1021        0.6188067        31.06894        0.6188067        31.06894        0.4387953        166.1021
4.67                   0.4443468        165.3164        0.6152078        30.03878        0.6152078        30.03878        0.4443474        165.3164
4.6714                 0.4498801        164.5262        0.6113646         29.0195        0.6113646         29.0195        0.4498806        164.5261
4.6728                 0.4553986        163.7312        0.6072937        28.01328        0.6072936        28.01328        0.4553991        163.7312
4.6742                 0.4609066        162.9314        0.6030145        27.02212        0.6030144        27.02212        0.4609072        162.9313
4.6756                 0.4664082        162.1261        0.5985489        26.04785        0.5985489        26.04785        0.4664088         162.126
4.677                  0.4719067        161.3146        0.5939209        25.09207        0.5939209        25.09207        0.4719072        161.3146
4.6784                 0.4774043        160.4962        0.5891558        24.15611        0.5891557        24.15611        0.4774049        160.4961
4.6798                 0.4829019        159.6697        0.5842796        23.24105        0.5842796        23.24105        0.4829025        159.6697
4.6812                 0.4883987        158.8342        0.5793192        22.34764        0.5793192        22.34764        0.4883992        158.8342
4.6826                 0.4938918        157.9884         0.574301        21.47632        0.5743009        21.47632        0.4938922        157.9884
4.684                  0.4993758        157.1313        0.5692505        20.62722        0.5692505        20.62721        0.4993763        157.1312
4.6854                 0.5048437        156.2616        0.5641925        19.80014        0.5641924        19.80014        0.5048441        156.2615
4.6868                 0.5102854        155.3784        0.5591496        18.99459        0.5591495        18.99458        0.5102859        155.3783
4.6882                 0.5156887        154.4807        0.5541425        18.20978        0.5541424        18.20977        0.5156892        154.4807
4.6896                 0.5210393        153.5679        0.5491894        17.44467        0.5491892        17.44467        0.5210397        153.5679
4.691                  0.5263207        152.6394        0.5443057        16.69801        0.5443055        16.69801        0.5263212        152.6394
4.6924                 0.5315149        151.6949        0.5395041        15.96836        0.5395039        15.96836        0.5315152        151.6949
4.6938                 0.5366022        150.7344        0.5347941        15.25418        0.5347939        15.25417        0.5366026        150.7344
4.6952                 0.5415621        149.7582        0.5301824        14.55381        0.5301822         14.5538        0.5415626        149.7582
4.6966                 0.5463736        148.7667        0.5256729        13.86559        0.5256728        13.86559        0.5463741        148.7666
4.698                  0.5510157        147.7606        0.5212669         13.1879        0.5212668        13.18789        0.5510162        147.7606
4.6994                 0.5554676         146.741        0.5169634        12.51915        0.5169632        12.51915        0.5554681         146.741
4.7008                 0.5597095        145.7093        0.5127592        11.85788         0.512759        11.85788          0.55971        145.7093
4.7022                 0.5637232        144.6668        0.5086496        11.20279        0.5086494        11.20279        0.5637237        144.6668
4.7036                 0.5674918        143.6153        0.5046287        10.55274        0.5046286        10.55273        0.5674924        143.6153
4.705                  0.5710009        142.5566        0.5006901        9.906747        0.5006899        9.906747        0.5710015        142.5565
4.7064                 0.5742388        141.4926        0.4968263        9.264068        0.4968262         9.26407        0.5742394        141.4926
4.7078                 0.5771964        140.4255        0.4930307        8.624129        0.4930305        8.624131         0.577197        140.4255
4.7092                 0.5798677        139.3575        0.4892962        7.986537         0.489296        7.986541        0.5798682        139.3574
4.7106                 0.5822498        138.2905        0.4856169        7.351063        0.4856168        7.351063        0.5822504        138.2905
4.712                  0.5843433        137.2267        0.4819876         6.71763        0.4819874        6.717657        0.5843439        137.2267
4.7134                  0.586152        136.1683        0.4784039         6.08625        0.4784037         6.08625        0.5861526        136.1683
4.7148                 0.5876828        135.1171        0.4748629        5.457011        0.4748627        5.457021        0.5876834        135.1171
4.7162                 0.5889455        134.0749        0.4713626        4.830045        0.4713624        4.830056        0.5889461        134.0749
4.7176                 0.5899527        133.0434        0.4679021        4.205486        0.4679019        4.205498        0.5899533        133.0434
4.719                  0.5907195         132.024        0.4644817        3.583436        0.4644815         3.58345        0.5907201         132.024
4.7204                 0.5912632        131.0178        0.4611021        2.963937        0.4611019        2.963952        0.5912637        131.0178
4.7218                 0.5916022        130.0259         0.457765        2.346946        0.4577648        2.346962        0.5916027        130.0259
4.7232                 0.5917563        129.0488        0.4544723        1.732311        0.4544722        1.732327        0.5917569        129.0488
4.7246                  0.591746        128.0869        0.4512261        1.119764         0.451226        1.119781        0.5917466        128.0869
4.726                  0.5915918        127.1403        0.4480282        0.508915        0.4480281       0.5089327        0.5915923        127.1403
4.7274                 0.5913135        126.2089        0.4448802      -0.1007454        0.4448801      -0.1007275         0.591314        126.2088
4.7288                 0.5909301         125.292         0.441783      -0.7098355        0.4417828      -0.7098172        0.5909306         125.292
4.7302                 0.5904592        124.3891        0.4387364       -1.319061        0.4387363       -1.319042        0.5904597        124.3891
4.7316                 0.5899164        123.4992        0.4357397       -1.929192        0.4357396       -1.929173        0.5899168        123.4992
4.733                  0.5893152        122.6212        0.4327908       -2.541033        0.4327907       -2.541014        0.5893156        122.6212
4.7344                 0.5886664        121.7538        0.4298866       -3.155387        0.4298865       -3.155369        0.5886668        121.7538
4.7358                 0.5879784        120.8957        0.4270227       -3.773023        0.4270227       -3.773006        0.5879787        120.8956
4.7372                 0.5872565        120.0454        0.4241941       -4.394636        0.4241941       -4.394618        0.5872568        120.0454
4.7386                 0.5865034        119.2017        0.4213947       -5.020813        0.4213946       -5.020795        0.5865038        119.2017
4.74                   0.5857193         118.363        0.4186175       -5.652005        0.4186175       -5.651988        0.5857196         118.363
4.7414                 0.5849016        117.5283        0.4158555       -6.288504        0.4158554       -6.288487        0.5849019        117.5283
4.7428                 0.5840458        116.6964        0.4131011       -6.930412         0.413101       -6.930396        0.5840461        116.6963
4.7442                 0.5831455        115.8663         0.410347       -7.577642        0.4103469       -7.577626        0.5831458        115.8663
4.7456                  0.582193        115.0373        0.4075863       -8.229908        0.4075863       -8.229892        0.5821932        115.0373
4.747                  0.5811794        114.2088        0.4048128       -8.886729        0.4048127       -8.886714        0.5811797        114.2088
4.7484                 0.5800957        113.3806        0.4020209       -9.547447        0.4020209       -9.547432         0.580096        113.3806
4.7498                 0.5789327        112.5527        0.3992066       -10.21124        0.3992066       -10.21122         0.578933        112.5527
4.7512                 0.5776817        111.7251        0.3963669       -10.87715        0.3963669       -10.87714         0.577682        111.7251
4.7526                  0.576335        110.8983        0.3935005       -11.54414        0.3935005       -11.54412        0.5763353        110.8983
4.754                  0.5748861        110.0727        0.3906076       -12.21108        0.3906075       -12.21107        0.5748863        110.0727
4.7554                 0.5733302        109.2491        0.3876899       -12.87687        0.3876898       -12.87685        0.5733305        109.2491
4.7568                 0.5716643        108.4283        0.3847508        -13.5404        0.3847507       -13.54038        0.5716646        108.4283
4.7582                 0.5698876        107.6112         0.381795       -14.20066         0.381795       -14.20064        0.5698879        107.6112
4.7596                 0.5680014        106.7987        0.3788288       -14.85676        0.3788288       -14.85674        0.5680017        106.7987
4.761                  0.5660089        105.9918        0.3758594       -15.50797        0.3758594       -15.50795        0.5660092        105.9918
4.7624                 0.5639158        105.1914        0.3728947       -16.15377        0.3728947       -16.15375        0.5639161        105.1914
4.7638                 0.5617294        104.3983        0.3699434       -16.79388        0.3699434       -16.79386        0.5617297        104.3983
4.7652                 0.5594588        103.6132        0.3670142       -17.42826        0.3670142       -17.42824        0.5594591        103.6132
4.7666                 0.5571143        102.8365        0.3641157       -18.05717        0.3641157       -18.05715        0.5571146        102.8366
4.768                  0.5547074        102.0688        0.3612562       -18.68113        0.3612562       -18.68111        0.5547077        102.0687
4.7694                 0.5522501        101.3099        0.3584427       -19.30095        0.3584428       -19.30093        0.5522504        101.3099
4.7708                 0.5497542        100.5599        0.3556817       -19.91766        0.3556817       -19.91764        0.5497545        100.5599
4.7722                 0.5472318        99.81846        0.3529778       -20.53253        0.3529778       -20.53252        0.5472322        99.81849
4.7736                 0.5446939        99.08498        0.3503343       -21.14702        0.3503344         -21.147        0.5446943        99.08501
4.775                  0.5421503        98.35873        0.3477527        -21.7627        0.3477527       -21.76268        0.5421506        98.35873
4.7764                 0.5396094        97.63874        0.3452325       -22.38121        0.3452326        -22.3812        0.5396097        97.63877
4.7778                 0.5370776        96.92389        0.3427717       -23.00423        0.3427718       -23.00422        0.5370779        96.92389
4.7792                 0.5345594        96.21287        0.3403663       -23.63336        0.3403663       -23.63335        0.5345597         96.2129
4.7806                 0.5320568        95.50448        0.3380108        -24.2701         0.338011       -24.27009        0.5320571        95.50447
4.782                  0.5295697        94.79721        0.3356985       -24.91578        0.3356986       -24.91577          0.52957        94.79724
4.7834                 0.5270955        94.08982        0.3334214       -25.57152        0.3334215       -25.57151        0.5270959        94.08988
4.7848                 0.5246296        93.38096        0.3311708       -26.23816        0.3311708       -26.23815        0.5246299        93.38099
4.7862                  0.522165        92.66951        0.3289374       -26.91628        0.3289375       -26.91627        0.5221654         92.6695
4.7876                 0.5196934         91.9543        0.3267123       -27.60612        0.3267124       -27.60611        0.5196937        91.95433
4.789                  0.5172047        91.23459        0.3244863       -28.30763        0.3244864       -28.30763         0.517205        91.23462
4.7904                 0.5146881        90.50977        0.3222515       -29.02046        0.3222516       -29.02046        0.5146884         90.5098
4.7918                  0.512132        89.77937        0.3200004       -29.74396        0.3200006       -29.74396        0.5121323        89.77937
4.7932                 0.5095249        89.04325        0.3177273       -30.47723        0.3177274       -30.47724        0.5095252        89.04327
4.7946                 0.5068553        88.30155        0.3154276       -31.21916        0.3154277       -31.21917        0.5068556         88.3016
4.796                  0.5041126        87.55465        0.3130986       -31.96849        0.3130987        -31.9685        0.5041129        87.55465
4.7974                 0.5012873        86.80303        0.3107394       -32.72384        0.3107395       -32.72385        0.5012877        86.80306
4.7988                 0.4983716        86.04758         0.308351       -33.48378        0.3083511        -33.4838        0.4983719         86.0476
4.8002                 0.4953591        85.28921        0.3059359       -34.24696         0.305936       -34.24698        0.4953593        85.28923
4.8016                 0.4922455        84.52902        0.3034988       -35.01206        0.3034989       -35.01208        0.4922458        84.52903
4.803                  0.4890289        83.76818        0.3010456       -35.77795        0.3010456       -35.77797        0.4890291        83.76819
4.8044                 0.4857093        83.00795        0.2985835       -36.54372        0.2985836       -36.54375        0.4857095        83.00796
4.8058                  0.482289        82.24955         0.296121       -37.30874        0.2961211       -37.30877        0.4822891        82.24958
4.8072                 0.4787724         81.4942        0.2936671       -38.07271        0.2936671       -38.07274        0.4787725        81.49422
4.8086                 0.4751656        80.74297        0.2912312       -38.83567        0.2912312        -38.8357        0.4751657        80.74297
4.81                   0.4714766        79.99682        0.2888226       -39.59809        0.2888226       -39.59813        0.4714767        79.99682
4.8114                 0.4677145        79.25653        0.2864502       -40.36081        0.2864501       -40.36085        0.4677146        79.25653
4.8128                 0.4638896        78.52265        0.2841221        -41.1251         0.284122       -41.12514        0.4638896        78.52266
4.8142                 0.4600122         77.7955        0.2818453       -41.89256        0.2818453        -41.8926        0.4600122        77.79552
4.8156                 0.4560931        77.07516        0.2796252       -42.66517        0.2796252        -42.6652         0.456093        77.07519
4.817                  0.4521426        76.36141        0.2774657       -43.44514        0.2774657       -43.44518        0.4521425        76.36144
4.8184                 0.4481702        75.65376        0.2753687       -44.23497        0.2753686         -44.235        0.4481701         75.6538
4.8198                 0.4441841        74.95149         0.273334       -45.03723        0.2733339       -45.03726         0.444184        74.95152
4.8212                 0.4401908        74.25364        0.2713596       -45.85461        0.2713596       -45.85463        0.4401908        74.25367
4.8226                 0.4361953        73.55905        0.2694415       -46.68972        0.2694414       -46.68975        0.4361953        73.55908
4.824                  0.4322001        72.86638        0.2675737       -47.54507        0.2675736        -47.5451           0.4322        72.86643
4.8254                 0.4282053        72.17428        0.2657491       -48.42302        0.2657489       -48.42304        0.4282053        72.17432
4.8268                 0.4242092        71.48123        0.2639587       -49.32561        0.2639585       -49.32562        0.4242091        71.48128
4.8282                 0.4202072        70.78581         0.262193       -50.25458        0.2621928        -50.2546        0.4202072        70.78588
4.8296                 0.4161929         70.0867        0.2604416       -51.21134        0.2604415       -51.21136        0.4161929        70.08677
4.831                  0.4121578        69.38265        0.2586942       -52.19685        0.2586941       -52.19687        0.4121579        69.38272
4.8324                 0.4080918        68.67267        0.2569406       -53.21173        0.2569404       -53.21174        0.4080919        68.67273
4.8338                 0.4039835        67.95597        0.2551709       -54.25616        0.2551707       -54.25618        0.4039835        67.95605
4.8352                 0.3998205        67.23213        0.2533764       -55.32999        0.2533762       -55.32999        0.3998206        67.23221
4.8366                 0.3955902        66.50099        0.2515495        -56.4327        0.2515494       -56.43271        0.3955902        66.50107
4.838                  0.3912797         65.7628        0.2496842       -57.56353        0.2496841       -57.56354        0.3912798        65.76288
4.8394                 0.3868771        65.01816        0.2477762       -58.72147         0.247776       -58.72149        0.3868773        65.01822
4.8408                 0.3823711        64.26801        0.2458228       -59.90539        0.2458226       -59.90539        0.3823712        64.26807
4.8422                 0.3777519         63.5137        0.2438235       -61.11406        0.2438233       -61.11406        0.3777521        63.51378
4.8436                 0.3730115        62.75694        0.2417795       -62.34631        0.2417794       -62.34631        0.3730116        62.75701
4.845                  0.3681439        61.99969        0.2396941       -63.60101         0.239694       -63.60101         0.368144        61.99975
4.8464                 0.3631454        61.24426         0.237572       -64.87726        0.2375719       -64.87724        0.3631456        61.24432
4.8478                  0.358015        60.49318        0.2354196       -66.17439        0.2354194       -66.17439        0.3580152        60.49324
4.8492                 0.3527542        59.74914        0.2332444       -67.49212        0.2332443       -67.49211        0.3527544         59.7492
4.8506                  0.347367        59.01502         0.231055       -68.83055        0.2310549       -68.83052        0.3473671        59.01507
4.852                  0.3418599        58.29373        0.2288606        -70.1902        0.2288605        -70.1902        0.3418601        58.29377
4.8534                  0.336242        57.58824        0.2266705       -71.57222        0.2266704       -71.57221        0.3362421        57.58828
4.8548                 0.3305243        56.90146        0.2244941       -72.97814        0.2244941       -72.97814        0.3305244         56.9015
4.8562                 0.3247197         56.2362        0.2223402       -74.41021        0.2223401       -74.41021        0.3247197        56.23624
4.8576                 0.3188426        55.59513        0.2202166        -75.8711        0.2202165       -75.87111        0.3188426        55.59517
4.859                  0.3129085        54.98073        0.2181303       -77.36403        0.2181302       -77.36405        0.3129085        54.98076
4.8604                 0.3069337        54.39518        0.2160866       -78.89269        0.2160865       -78.89269        0.3069337        54.39521
4.8618                 0.3009345        53.84044        0.2140892       -80.46113        0.2140891       -80.46115        0.3009344        53.84048
4.8632                  0.294927        53.31814        0.2121402       -82.07378        0.2121401       -82.07378        0.2949269        53.31817
4.8646                 0.2889269         52.8296        0.2102396       -83.73522        0.2102395       -83.73525        0.2889267        52.82964
4.866                  0.2829485        52.37584         0.208386       -85.45019        0.2083859       -85.45019        0.2829483         52.3759
4.8674                 0.2770051        51.95761        0.2065757       -87.22338        0.2065756        -87.2234        0.2770049        51.95767
4.8688                 0.2711083        51.57542         0.204804       -89.05945        0.2048039       -89.05946        0.2711081        51.57548
4.8702                 0.2652678        51.22958        0.2030646       -90.96279        0.2030645       -90.96281        0.2652675        51.22965
4.8716                 0.2594914        50.92032        0.2013502       -92.93754        0.2013501       -92.93754        0.2594912        50.92038