! TOUCHSTONE file generated by CST MICROWAVE STUDIO
! Date and time: Sun Dec  1 17:26:32 2024
! Project name: test_tuning.cst
! Parameters = {airCoaxOuterDiameter=3; chamferAngle=45; chamferWidth=4; connectorLength=10; drillingHoleDiameter=4.1; feedLength=60; flareDiameter=130; flareLength=70; gratingDistance=0; gratingGap=1.90274; outletLength=30; polarizerLength=134; probe1Diameter=1.3; probe1Distance=14; probe1Length=12; probe2Diameter=1.3; probe2Distance=0; probe2Length=12; probeLength=12; smaInnerDiameter=1.3; smaOuterDiameter=4.1; transitionCoefficient=1.33; waveguideFeedLength=30; waveguideSide=50; waveguideThickness=3; wireCount=25; wireDiameter=1.17699}
! Header version: 2024
! Port assignment regex: !\s*Touchstone port\s*([0-9]+)\s*=\s*(CST MWS port|CST DES external port|CST DES block port)\s*(.+)\s* \(\"(.*)\"\)(\s*mode\s*([0-9]+))?.*
! Touchstone port assignment:
! Touchstone port 1 = CST MWS port 1 ("Input1")
! Touchstone port 2 = CST MWS port 2 ("Input2")
# GHz S MA R 50
4.6                     0.308271        87.06429        0.1985274        97.40339        0.1985285        97.40339        0.3082708        87.06407
4.6014                 0.3066556        86.66354        0.2000978        96.87766        0.2000989        96.87763        0.3066554        86.66334
4.6028                 0.3049676        86.26284        0.2015952        96.35133        0.2015963        96.35131        0.3049673        86.26267
4.6042                  0.303206        85.86292        0.2030213        95.82572        0.2030223        95.82566        0.3032057        85.86274
4.6056                 0.3013703        85.46451        0.2043781        95.30195        0.2043791         95.3019          0.30137        85.46434
4.607                  0.2994603        85.06841        0.2056678         94.7812        0.2056689        94.78113          0.29946        85.06827
4.6084                  0.297476        84.67549        0.2068932        94.26446        0.2068942        94.26437        0.2974756        84.67535
4.6098                 0.2954177        84.28657         0.208057        93.75269        0.2080579        93.75263        0.2954174        84.28647
4.6112                 0.2932862         83.9026        0.2091624        93.24683        0.2091633        93.24676        0.2932858        83.90252
4.6126                 0.2910826        83.52451        0.2102128        92.74766        0.2102137        92.74757        0.2910822        83.52444
4.614                  0.2888081        83.15326        0.2112119        92.25591        0.2112128        92.25583        0.2888077         83.1532
4.6154                 0.2864646        82.78986        0.2121636        91.77224        0.2121644        91.77215        0.2864642        82.78981
4.6168                  0.284054        82.43532        0.2130719        91.29722        0.2130727        91.29711        0.2840537        82.43528
4.6182                  0.281579         82.0907        0.2139411        90.83133        0.2139419         90.8312        0.2815787        82.09068
4.6196                 0.2790421        81.75707        0.2147758        90.37492        0.2147766         90.3748        0.2790418        81.75706
4.621                  0.2764465         81.4355        0.2155806        89.92833        0.2155813         89.9282        0.2764463        81.43551
4.6224                 0.2737957        81.12711        0.2163601        89.49174        0.2163608        89.49161        0.2737955        81.12711
4.6238                 0.2710934          80.833        0.2171193        89.06527          0.21712        89.06513        0.2710933        80.83303
4.6252                 0.2683439        80.55427        0.2178632         88.6489        0.2178638        88.64876        0.2683438        80.55431
4.6266                 0.2655514        80.29206        0.2185965        88.24254        0.2185971         88.2424        0.2655514        80.29211
4.628                  0.2627208        80.04748        0.2193245        87.84596        0.2193251        87.84582        0.2627208        80.04753
4.6294                 0.2598569        79.82161        0.2200519        87.45889        0.2200525        87.45874         0.259857        79.82167
4.6308                 0.2569651        79.61556        0.2207838        87.08089        0.2207843        87.08075        0.2569653        79.61563
4.6322                  0.254051        79.43036         0.221525        86.71144        0.2215254        86.71129        0.2540512        79.43044
4.6336                 0.2511203        79.26707        0.2222801        86.34992        0.2222805        86.34979        0.2511205        79.26715
4.635                   0.248179        79.12665        0.2230536        85.99563        0.2230541        85.99548        0.2481793        79.12673
4.6364                 0.2452333        79.01005        0.2238501        85.64774        0.2238505         85.6476        0.2452336        79.01013
4.6378                 0.2422895        78.91815        0.2246735        85.30534        0.2246739        85.30522        0.2422899        78.91823
4.6392                 0.2393541        78.85175        0.2255278        84.96747        0.2255281        84.96733        0.2393545        78.85184
4.6406                 0.2364336        78.81159        0.2264164        84.63302        0.2264167        84.63289        0.2364342        78.81166
4.642                  0.2335348        78.79828        0.2273426        84.30087        0.2273429        84.30074        0.2335354        78.79835
4.6434                 0.2306643        78.81236        0.2283094        83.96984        0.2283096        83.96971        0.2306649        78.81243
4.6448                 0.2278287        78.85423        0.2293191        83.63866        0.2293193        83.63854        0.2278294         78.8543
4.6462                 0.2250347        78.92419        0.2303739        83.30605        0.2303741        83.30593        0.2250354        78.92426
4.6476                 0.2222888        79.02238        0.2314754        82.97069        0.2314756        82.97058        0.2222896        79.02241
4.649                  0.2195973        79.14873         0.232625        82.63126        0.2326252        82.63115        0.2195981        79.14877
4.6504                 0.2169664        79.30311        0.2338233        82.28639        0.2338234        82.28628        0.2169672        79.30314
4.6518                  0.214402        79.48515        0.2350707        81.93476        0.2350708        81.93465        0.2144028        79.48518
4.6532                 0.2119098        79.69433         0.236367        81.57502        0.2363671        81.57493        0.2119107        79.69433
4.6546                 0.2094951        79.92988        0.2377116        81.20592        0.2377117        81.20582        0.2094959        79.92987
4.656                  0.2071627        80.19094        0.2391033        80.82617        0.2391034        80.82607        0.2071635        80.19092
4.6574                  0.204917        80.47638        0.2405408        80.43456        0.2405409        80.43447        0.2049179        80.47633
4.6588                 0.2027621        80.78488        0.2420219        80.02994         0.242022        80.02986         0.202763        80.78483
4.6602                 0.2007013        81.11501        0.2435443        79.61122        0.2435444        79.61113        0.2007022        81.11493
4.6616                 0.1987374        81.46509        0.2451051        79.17738        0.2451052        79.17729        0.1987383        81.46498
4.663                  0.1968727        81.83329        0.2467011        78.72745        0.2467012        78.72736        0.1968736        81.83319
4.6644                 0.1951088        82.21771        0.2483288        78.26058        0.2483288        78.26051        0.1951096        82.21757
4.6658                 0.1934464        82.61622         0.249984        77.77599         0.249984        77.77592        0.1934472        82.61607
4.6672                 0.1918858        83.02667        0.2516626        77.27298        0.2516627        77.27292        0.1918866         83.0265
4.6686                 0.1904266        83.44679          0.25336        76.75093        0.2533601        76.75087        0.1904274        83.44661
4.67                   0.1890676        83.87429        0.2550714        76.20933        0.2550714        76.20927        0.1890683         83.8741
4.6714                 0.1878069        84.30687        0.2567917        75.64773        0.2567917        75.64768        0.1878076        84.30666
4.6728                 0.1866421        84.74221        0.2585155        75.06578        0.2585156        75.06574        0.1866427        84.74199
4.6742                   0.18557        85.17807        0.2602375        74.46323        0.2602376        74.46319        0.1855706        85.17785
4.6756                  0.184587        85.61228         0.261952        73.83988        0.2619521        73.83985        0.1845875        85.61203
4.677                  0.1836886        86.04274        0.2636533        73.19563        0.2636534        73.19559        0.1836891        86.04248
4.6784                 0.1828703        86.46752        0.2653355        72.53045        0.2653356         72.5304        0.1828707        86.46725
4.6798                 0.1821268        86.88483        0.2669928        71.84434        0.2669928        71.84432        0.1821272        86.88455
4.6812                 0.1814526        87.29303        0.2686191        71.13745        0.2686192        71.13742        0.1814529        87.29275
4.6826                 0.1808417        87.69073        0.2702085        70.40992        0.2702086        70.40988        0.1808419        87.69044
4.684                   0.180288        88.07667        0.2717551        69.66195        0.2717552        69.66193        0.1802881        88.07638
4.6854                 0.1797852        88.44985        0.2732529        68.89386         0.273253        68.89384        0.1797853        88.44957
4.6868                 0.1793269        88.80951         0.274696        68.10595        0.2746961        68.10592        0.1793269        88.80922
4.6882                 0.1789067        89.15506        0.2760785        67.29857        0.2760787        67.29856        0.1789066        89.15479
4.6896                  0.178518        89.48618        0.2773949        66.47218         0.277395        66.47214        0.1785179         89.4859
4.691                  0.1781546        89.80272        0.2786394        65.62716        0.2786395        65.62713        0.1781544        89.80247
4.6924                 0.1778102        90.10482        0.2798065        64.76404        0.2798067        64.76401        0.1778099        90.10457
4.6938                 0.1774788        90.39276        0.2808909        63.88331         0.280891        63.88328        0.1774785        90.39252
4.6952                 0.1771546        90.66705        0.2818874        62.98552        0.2818875        62.98549        0.1771543        90.66682
4.6966                 0.1768323        90.92841        0.2827908        62.07123        0.2827909         62.0712        0.1768319        90.92817
4.698                  0.1765068        91.17767        0.2835964        61.14102        0.2835965        61.14099        0.1765063        91.17746
4.6994                 0.1761732        91.41591        0.2842994        60.19551        0.2842995        60.19548        0.1761727        91.41571
4.7008                 0.1758274        91.64427        0.2848954         59.2353        0.2848955        59.23527        0.1758269         91.6441
4.7022                 0.1754656        91.86414          0.28538        58.26105        0.2853802        58.26102        0.1754651        91.86397
4.7036                 0.1750845        92.07694        0.2857493         57.2734        0.2857494        57.27337        0.1750839         92.0768
4.705                  0.1746812        92.28423        0.2859994        56.27304        0.2859995          56.273        0.1746806        92.28411
4.7064                 0.1742536         92.4877        0.2861266        55.26063        0.2861268        55.26059         0.174253        92.48758
4.7078                 0.1737999        92.68908        0.2861277        54.23687        0.2861279        54.23683        0.1737993        92.68899
4.7092                 0.1733192         92.8902        0.2859996        53.20246        0.2859997        53.20241        0.1733185        92.89014
4.7106                 0.1728108        93.09293        0.2857393        52.15811        0.2857395        52.15806        0.1728101        93.09288
4.712                  0.1722748         93.2992        0.2853443        51.10457        0.2853444        51.10454        0.1722742        93.29917
4.7134                 0.1717122        93.51097        0.2848122        50.04254        0.2848124        50.04248        0.1717115        93.51094
4.7148                 0.1711241        93.73019         0.284141        48.97278        0.2841412        48.97273        0.1711234        93.73016
4.7162                 0.1705126        93.95877        0.2833289        47.89605         0.283329          47.896        0.1705119         93.9588
4.7176                 0.1698802        94.19867        0.2823743        46.81314        0.2823744        46.81309        0.1698795         94.1987
4.719                  0.1692303        94.45179         0.281276         45.7248        0.2812761        45.72475        0.1692296        94.45188
4.7204                 0.1685665        94.71997         0.280033        44.63182        0.2800331        44.63176        0.1685658        94.72005
4.7218                 0.1678934         95.0049        0.2786445        43.53503        0.2786446          43.535        0.1678927        95.00498
4.7232                 0.1672158        95.30823        0.2771103        42.43527        0.2771104        42.43521        0.1672152        95.30837
4.7246                 0.1665395        95.63148        0.2754301        41.33335        0.2754301         41.3333         0.166539        95.63164
4.726                  0.1658705        95.97604         0.273604        40.23012        0.2736041         40.2301        0.1658699        95.97617
4.7274                 0.1652153        96.34298        0.2716325        39.12652        0.2716326         39.1265        0.1652148        96.34311
4.7288                 0.1645809        96.73327        0.2695164        38.02344        0.2695165         38.0234        0.1645805        96.73349
4.7302                 0.1639749        97.14769        0.2672565        36.92178        0.2672566        36.92175        0.1639745        97.14787
4.7316                 0.1634049        97.58665        0.2648541        35.82258        0.2648542         35.8225        0.1634045        97.58686
4.733                   0.162879        98.05024        0.2623108        34.72673        0.2623109        34.72665        0.1628787        98.05047
4.7344                 0.1624055        98.53839        0.2596284        33.63529        0.2596284        33.63526        0.1624052        98.53862
4.7358                 0.1619928        99.05048        0.2568088        32.54935        0.2568089        32.54932        0.1619925        99.05074
4.7372                 0.1616493        99.58572        0.2538547        31.47007        0.2538547        31.46999        0.1616491        99.58597
4.7386                 0.1613833        100.1427        0.2507684         30.3985        0.2507684        30.39847        0.1613832         100.143
4.74                   0.1612032          100.72         0.247553        29.33593        0.2475531        29.33587        0.1612031        100.7203
4.7414                  0.161117        101.3155        0.2442116        28.28359        0.2442116        28.28355        0.1611169        101.3157
4.7428                 0.1611322        101.9267        0.2407476        27.24284        0.2407476        27.24279        0.1611321         101.927
4.7442                  0.161256        102.5509        0.2371648        26.21506        0.2371648        26.21501        0.1612561        102.5512
4.7456                 0.1614952        103.1851         0.233467        25.20173         0.233467        25.20168        0.1614952        103.1854
4.747                  0.1618556        103.8258        0.2296586        24.20444        0.2296586        24.20439        0.1618557        103.8261
4.7484                 0.1623425        104.4694         0.225744        23.22483        0.2257439        23.22479        0.1623426        104.4696
4.7498                 0.1629603         105.112        0.2217279        22.26468        0.2217278        22.26464        0.1629605        105.1123
4.7512                 0.1637125        105.7496        0.2176153        21.32588        0.2176153        21.32583        0.1637127        105.7499
4.7526                 0.1646017        106.3782        0.2134116        20.41043        0.2134116        20.41038         0.164602        106.3785
4.754                  0.1656296        106.9937        0.2091223        19.52049        0.2091223        19.52045        0.1656299         106.994
4.7554                 0.1667966         107.592        0.2047532        18.65839        0.2047531        18.65835         0.166797        107.5923
4.7568                 0.1681025        108.1692        0.2003104        17.82661        0.2003103        17.82656        0.1681029        108.1694
4.7582                 0.1695459        108.7215        0.1958003        17.02782        0.1958002        17.02778        0.1695464        108.7217
4.7596                 0.1711245        109.2453        0.1912296        16.26493        0.1912295        16.26489        0.1711249        109.2456
4.761                   0.172835        109.7375        0.1866054        15.54108        0.1866053        15.54104        0.1728354        109.7377
4.7624                 0.1746732        110.1949        0.1819349        14.85964        0.1819348         14.8596        0.1746737        110.1951
4.7638                 0.1766345        110.6149        0.1772258         14.2243        0.1772257        14.22426         0.176635        110.6151
4.7652                  0.178713        110.9953        0.1724862        13.63904        0.1724861        13.63901        0.1787135        110.9955
4.7666                 0.1809026        111.3341        0.1677246        13.10821        0.1677245        13.10818        0.1809032        111.3342
4.768                  0.1831965        111.6295        0.1629498        12.63651        0.1629497        12.63647        0.1831971        111.6297
4.7694                 0.1855873        111.8805        0.1581712        12.22905        0.1581711        12.22902        0.1855879        111.8806
4.7708                 0.1880675         112.086        0.1533987        11.89139        0.1533986        11.89136        0.1880681        112.0862
4.7722                 0.1906288        112.2456        0.1486427        11.62955        0.1486425        11.62953        0.1906294        112.2457
4.7736                 0.1932632        112.3588        0.1439142        11.45005         0.143914        11.45003        0.1932638        112.3589
4.775                   0.195962        112.4256        0.1392248        11.35991        0.1392247        11.35989        0.1959626        112.4257
4.7764                 0.1987169        112.4462        0.1345872        11.36668        0.1345871        11.36667        0.1987175        112.4463
4.7778                 0.2015191        112.4212        0.1300145        11.47842        0.1300143        11.47841        0.2015197        112.4213
4.7792                   0.20436         112.351        0.1255208        11.70366        0.1255207        11.70366        0.2043606        112.3511
4.7806                 0.2072311        112.2365        0.1211212        12.05135        0.1211211        12.05135        0.2072317        112.2366
4.782                  0.2101239        112.0787        0.1168318        12.53071        0.1168317        12.53072        0.2101245        112.0788
4.7834                   0.21303        111.8785        0.1126698         13.1511        0.1126697        13.15112        0.2130306        111.8786
4.7848                 0.2159413        111.6371        0.1086534        13.92175        0.1086533        13.92177        0.2159419        111.6372
4.7862                 0.2188497        111.3557        0.1048019        14.85138        0.1048018         14.8514        0.2188503        111.3558
4.7876                 0.2217474        111.0357        0.1011356         15.9478        0.1011355        15.94783         0.221748        111.0358
4.789                  0.2246269        110.6783       0.09767574        17.21727       0.09767566         17.2173        0.2246275        110.6784
4.7904                 0.2274807        110.2849       0.09444402        18.66388       0.09444393        18.66392        0.2274813         110.285
4.7918                 0.2303019        109.8569       0.09146244        20.28868       0.09146238        20.28873        0.2303025         109.857
4.7932                 0.2330836        109.3956       0.08875279         22.0889       0.08875272        22.08895        0.2330841        109.3956
4.7946                 0.2358192        108.9024       0.08633584        24.05711       0.08633578        24.05717        0.2358197        108.9025
4.796                  0.2385025        108.3787       0.08423065        26.18057        0.0842306        26.18063        0.2385031        108.3788
4.7974                 0.2411275        107.8258       0.08245364        28.44084       0.08245361        28.44091        0.2411281        107.8259
4.7988                 0.2436886        107.2451       0.08101772        30.81385       0.08101768        30.81393        0.2436892        107.2452
4.8002                 0.2461803        106.6379       0.07993131        33.27047        0.0799313        33.27054        0.2461808         106.638
4.8016                 0.2485975        106.0054       0.07919777        35.77759       0.07919777        35.77766         0.248598        106.0055
4.803                  0.2509354        105.3489       0.07881488        38.29981       0.07881489        38.29988        0.2509359         105.349
4.8044                 0.2531894        104.6696        0.0787748         40.8013       0.07877483        40.80137          0.25319        104.6697
4.8058                 0.2553554        103.9687       0.07906435        43.24778       0.07906439        43.24785        0.2553559        103.9688
4.8072                 0.2574293        103.2473       0.07966561         45.6083       0.07966566        45.60837        0.2574299        103.2474
4.8086                 0.2594076        102.5066       0.08055679        47.85658       0.08055685        47.85664        0.2594081        102.5067
4.81                   0.2612867        101.7477       0.08171331         49.9718       0.08171338        49.97185        0.2612872        101.7477
4.8114                 0.2630636        100.9715       0.08310876        51.93889       0.08310883        51.93893        0.2630641        100.9715
4.8128                 0.2647355         100.179       0.08471594         53.7483       0.08471601        53.74834         0.264736        100.1791
4.8142                 0.2662998        99.37141       0.08650769        55.39545       0.08650777        55.39547        0.2663003        99.37148
4.8156                 0.2677542        98.54949       0.08845759        56.87994       0.08845768        56.87997        0.2677547        98.54955
4.817                  0.2690967         97.7142       0.09054044        58.20477       0.09054053        58.20479        0.2690972        97.71426
4.8184                 0.2703255        96.86641       0.09273261        59.37543       0.09273268        59.37546         0.270326        96.86648
4.8198                 0.2714391        96.00701        0.0950122        60.39928       0.09501229         60.3993        0.2714396        96.00709
4.8212                 0.2724363        95.13682       0.09735922         61.2848       0.09735931        61.28481        0.2724368        95.13689
4.8226                  0.273316        94.25661       0.09975552        62.04114       0.09975559        62.04115        0.2733165        94.25669
4.824                  0.2740775         93.3672        0.1021847        62.67775        0.1021848        62.67775         0.274078        93.36728
4.8254                 0.2747202         92.4693        0.1046322        63.20404        0.1046323        63.20403        0.2747207        92.46937
4.8268                  0.275244        91.56365        0.1070849         63.6292         0.107085        63.62918        0.2752445        91.56373
4.8282                 0.2756487        90.65095        0.1095314        63.96207        0.1095315        63.96205        0.2756492        90.65104
4.8296                 0.2759344        89.73188        0.1119614          64.211        0.1119615          64.211        0.2759349        89.73196
4.831                  0.2761017        88.80709        0.1143661        64.38391        0.1143662         64.3839        0.2761021        88.80716
4.8324                  0.276151         87.8772        0.1167377        64.48813        0.1167378        64.48811        0.2761514        87.87728
4.8338                 0.2760832        86.94286        0.1190695         64.5305        0.1190696        64.53049        0.2760836        86.94294
4.8352                 0.2758992        86.00461        0.1213558        64.51736        0.1213558        64.51736        0.2758997         86.0047
4.8366                 0.2756004        85.06308        0.1235915        64.45457        0.1235916        64.45456        0.2756009        85.06315
4.838                   0.275188        84.11878        0.1257727        64.34751        0.1257728        64.34748        0.2751885        84.11887
4.8394                 0.2746636        83.17226        0.1278959        64.20112        0.1278959         64.2011        0.2746641        83.17235
4.8408                 0.2740291        82.22405        0.1299583        64.01999        0.1299584        64.01997        0.2740296        82.22413
4.8422                 0.2732862        81.27463        0.1319579        63.80831        0.1319579        63.80829        0.2732867        81.27471
4.8436                 0.2724371        80.32447        0.1338929        63.56994         0.133893        63.56993        0.2724376        80.32457
4.845                   0.271484        79.37406        0.1357625        63.30842        0.1357625         63.3084        0.2714845        79.37416
4.8464                 0.2704292        78.42383        0.1375659          63.027         0.137566        63.02698        0.2704297        78.42393
4.8478                 0.2692753        77.47421         0.139303        62.72867        0.1393031        62.72866        0.2692757         77.4743
4.8492                 0.2680248         76.5256        0.1409741        62.41616        0.1409741        62.41615        0.2680253        76.52568
4.8506                 0.2666805        75.57839        0.1425797        62.09201        0.1425797        62.09198         0.266681        75.57847
4.852                  0.2652453        74.63295        0.1441208        61.75851        0.1441208        61.75848        0.2652457        74.63304
4.8534                  0.263722        73.68965        0.1455987        61.41775        0.1455987        61.41774        0.2637225        73.68972
4.8548                 0.2621138        72.74878        0.1470148        61.07168        0.1470149        61.07167        0.2621142        72.74887
4.8562                 0.2604237        71.81069        0.1483712        60.72204        0.1483712        60.72203        0.2604241        71.81077
4.8576                 0.2586549        70.87567        0.1496698        60.37043        0.1496698        60.37043        0.2586554        70.87575
4.859                  0.2568107        69.94396        0.1509129        60.01829        0.1509129        60.01828        0.2568112        69.94405
4.8604                 0.2548944        69.01584         0.152103         59.6669         0.152103         59.6669        0.2548948        69.01593
4.8618                 0.2529092        68.09153        0.1532428        59.31744        0.1532428        59.31742        0.2529097        68.09161
4.8632                 0.2508586        67.17122        0.1543352         58.9709        0.1543352        58.97089        0.2508591         67.1713
4.8646                  0.248746         66.2551        0.1553831        58.62821        0.1553831         58.6282        0.2487464        66.25517
4.866                  0.2465747        65.34332        0.1563896        58.29011        0.1563896        58.29011        0.2465751        65.34341
4.8674                  0.244348        64.43604        0.1573578        57.95728        0.1573578        57.95728        0.2443484        64.43611
4.8688                 0.2420695        63.53334        0.1582911        57.63025        0.1582911        57.63025        0.2420699        63.53342
4.8702                 0.2397424        62.63527        0.1591927        57.30945        0.1591927        57.30945        0.2397428        62.63537
4.8716                 0.2373701        61.74196        0.1600661        56.99522        0.1600661        56.99522        0.2373705        61.74204