! TOUCHSTONE file generated by CST MICROWAVE STUDIO
! Date and time: Sat Nov 30 03:28:48 2024
! Project name: test_tuning.cst
! Parameters = {airCoaxOuterDiameter=3; chamferAngle=45; chamferWidth=20; connectorLength=10; drillingHoleDiameter=4.1; feedLength=60; flareDiameter=130; flareLength=70; gratingDistance=0; gratingGap=1.90274; outletLength=30; polarizerLength=134; probe1Diameter=1.3; probe1Distance=14; probe1Length=12; probe2Diameter=1.3; probe2Distance=0; probe2Length=12; probeLength=12; smaInnerDiameter=1.3; smaOuterDiameter=4.1; transitionCoefficient=1.33; waveguideFeedLength=30; waveguideSide=50; waveguideThickness=3; wireCount=25; wireDiameter=1.17699}
! Header version: 2024
! Port assignment regex: !\s*Touchstone port\s*([0-9]+)\s*=\s*(CST MWS port|CST DES external port|CST DES block port)\s*(.+)\s* \(\"(.*)\"\)(\s*mode\s*([0-9]+))?.*
! Touchstone port assignment:
! Touchstone port 1 = CST MWS port 1 ("Input1")
! Touchstone port 2 = CST MWS port 2 ("Input2")
# GHz S MA R 50
4.6                    0.5429128        166.7574        0.5441415        37.02104        0.5441405        37.02102        0.5429135        166.7575
4.6014                  0.551307        165.3109        0.5402968        35.72552        0.5402958        35.72551        0.5513078         165.311
4.6028                 0.5594237        163.8684        0.5362465        34.42452        0.5362454        34.42451        0.5594245        163.8685
4.6042                 0.5672548        162.4303        0.5319888        33.11868        0.5319877        33.11868        0.5672558        162.4304
4.6056                 0.5747932         160.997        0.5275229        31.80871        0.5275219        31.80871        0.5747942        160.9971
4.607                   0.582032        159.5689        0.5228485        30.49532        0.5228474        30.49534         0.582033         159.569
4.6084                 0.5889651        158.1464        0.5179659        29.17931        0.5179649        29.17933        0.5889663        158.1465
4.6098                 0.5955872        156.7299        0.5128762        27.86148        0.5128752         27.8615        0.5955884          156.73
4.6112                 0.6018934          155.32         0.507581        26.54269          0.50758        26.54271        0.6018946        155.3201
4.6126                 0.6078796        153.9169        0.5020827        25.22383        0.5020818        25.22386         0.607881         153.917
4.614                  0.6135422        152.5212        0.4963845        23.90585        0.4963836        23.90588        0.6135436        152.5212
4.6154                 0.6188785        151.1332        0.4904901        22.58972        0.4904892        22.58976        0.6188799        151.1333
4.6168                 0.6238863        149.7535        0.4844041        21.27647        0.4844032        21.27651        0.6238879        149.7536
4.6182                 0.6285642        148.3824        0.4781316        19.96714        0.4781308        19.96719        0.6285657        148.3825
4.6196                 0.6329115        147.0205        0.4716785        18.66285        0.4716777         18.6629         0.632913        147.0206
4.621                   0.636928        145.6681        0.4650513        17.36473        0.4650507        17.36479        0.6369297        145.6682
4.6224                 0.6406146        144.3258        0.4582575        16.07397        0.4582568        16.07403        0.6406163        144.3259
4.6238                 0.6439726         142.994        0.4513048        14.79178        0.4513042        14.79185        0.6439744         142.994
4.6252                  0.647004         141.673        0.4442019        13.51943        0.4442013         13.5195        0.6470059        141.6731
4.6266                 0.6497118        140.3635         0.436958        12.25821        0.4369574        12.25829        0.6497138        140.3636
4.628                  0.6520993        139.0658        0.4295828        11.00947        0.4295823        11.00955        0.6521013        139.0659
4.6294                 0.6541711        137.7804        0.4220869        9.774566        0.4220865        9.774646        0.6541731        137.7804
4.6308                 0.6559317        136.5077        0.4144812        8.554908        0.4144808        8.554992        0.6559338        136.5078
4.6322                 0.6573869        135.2482        0.4067772        7.351932        0.4067769         7.35202         0.657389        135.2482
4.6336                 0.6585431        134.0022         0.398987        6.167097        0.3989866        6.167188        0.6585453        134.0022
4.635                   0.659407        132.7703        0.3911229        5.001887        0.3911227         5.00198        0.6594093        132.7703
4.6364                 0.6599866        131.5527         0.383198        3.857798        0.3831977        3.857894        0.6599887        131.5527
4.6378                 0.6602897          130.35        0.3752253        2.736342        0.3752251         2.73644         0.660292          130.35
4.6392                 0.6603254        129.1624        0.3672185        1.639028        0.3672183        1.639128        0.6603277        129.1624
4.6406                 0.6601032        127.9904        0.3591913       0.5673584        0.3591912       0.5674602        0.6601056        127.9904
4.642                  0.6596329        126.8342        0.3511579      -0.4771831        0.3511577      -0.4770803        0.6596351        126.8342
4.6434                 0.6589249        125.6942        0.3431322       -1.493144        0.3431321        -1.49304        0.6589271        125.6941
4.6448                 0.6579903        124.5706        0.3351284       -2.479117        0.3351284       -2.479012        0.6579924        124.5705
4.6462                 0.6568403        123.4637        0.3271608       -3.433758        0.3271608       -3.433653        0.6568425        123.4636
4.6476                 0.6554868        122.3736        0.3192433       -4.355803        0.3192433       -4.355699         0.655489        122.3735
4.649                  0.6539418        121.3006        0.3113896       -5.244089        0.3113898       -5.243984        0.6539439        121.3005
4.6504                 0.6522177        120.2447        0.3036135       -6.097573        0.3036136        -6.09747        0.6522197        120.2446
4.6518                 0.6503269        119.2061        0.2959278       -6.915364        0.2959279       -6.915262        0.6503289         119.206
4.6532                 0.6482822        118.1846        0.2883452       -7.696737        0.2883454       -7.696636        0.6482841        118.1845
4.6546                 0.6460963        117.1804        0.2808776       -8.441166        0.2808778       -8.441068        0.6460981        117.1803
4.656                  0.6437819        116.1933        0.2735363       -9.148351        0.2735365       -9.148256        0.6437836        116.1932
4.6574                 0.6413518        115.2231        0.2663315       -9.818243        0.2663317       -9.818153        0.6413535         115.223
4.6588                 0.6388185        114.2697        0.2592726       -10.45107        0.2592729       -10.45098          0.63882        114.2695
4.6602                 0.6361942        113.3326        0.2523678       -11.04735        0.2523681       -11.04727        0.6361956        113.3325
4.6616                  0.633491        112.4117        0.2456242       -11.60795        0.2456246       -11.60787        0.6334923        112.4115
4.663                  0.6307205        111.5063        0.2390475       -12.13403        0.2390479       -12.13396        0.6307217        111.5062
4.6644                 0.6278938        110.6161         0.232642       -12.62714        0.2326423       -12.62708        0.6278948         110.616
4.6658                 0.6250214        109.7405        0.2264103       -13.08916        0.2264107        -13.0891        0.6250223        109.7403
4.6672                 0.6221134        108.8788        0.2203537       -13.52232        0.2203541       -13.52227        0.6221142        108.8786
4.6686                  0.619179        108.0303        0.2144717       -13.92919        0.2144721       -13.92915        0.6191797        108.0302
4.67                   0.6162266        107.1943        0.2087621       -14.31267        0.2087625       -14.31263        0.6162272        107.1941
4.6714                 0.6132641        106.3698         0.203221        -14.6759        0.2032214       -14.67588        0.6132645        106.3697
4.6728                 0.6102981        105.5562        0.1978429       -15.02232        0.1978433        -15.0223        0.6102984         105.556
4.6742                 0.6073346        104.7523        0.1926206       -15.35551         0.192621       -15.35551        0.6073347        104.7521
4.6756                 0.6043784        103.9572        0.1875454       -15.67923        0.1875457       -15.67923        0.6043783         103.957
4.677                  0.6014333        103.1698        0.1826068       -15.99727        0.1826072       -15.99728        0.6014331        103.1696
4.6784                 0.5985022        102.3892        0.1777934       -16.31343        0.1777937       -16.31346        0.5985019         102.389
4.6798                 0.5955869        101.6142        0.1730922       -16.63145        0.1730926       -16.63149        0.5955865         101.614
4.6812                 0.5926881        100.8437        0.1684895        -16.9549        0.1684898       -16.95495        0.5926877        100.8435
4.6826                 0.5898057        100.0766        0.1639703       -17.28713        0.1639706       -17.28718         0.589805        100.0765
4.684                  0.5869379        99.31184        0.1595192       -17.63118        0.1595195       -17.63124        0.5869372        99.31171
4.6854                 0.5840826        98.54828        0.1551202       -17.98972        0.1551205        -17.9898        0.5840818        98.54814
4.6868                 0.5812365        97.78485        0.1507572         -18.365        0.1507575       -18.36508        0.5812355        97.78472
4.6882                 0.5783949        97.02046        0.1464138       -18.75873         0.146414       -18.75884        0.5783939        97.02034
4.6896                 0.5755529        96.25413        0.1420739       -19.17209        0.1420741        -19.1722        0.5755517        96.25404
4.691                  0.5727043        95.48491        0.1377215       -19.60559        0.1377217       -19.60572        0.5727031         95.4848
4.6924                 0.5698422        94.71181        0.1333413       -20.05909        0.1333415        -20.0592        0.5698409        94.71172
4.6938                 0.5669592        93.93399        0.1289186       -20.53163        0.1289187       -20.53174        0.5669578        93.93392
4.6952                 0.5640469        93.15064        0.1244394       -21.02143        0.1244395       -21.02154        0.5640455        93.15058
4.6966                 0.5610966        92.36103        0.1198909       -21.52568         0.119891       -21.52584        0.5610951        92.36101
4.698                   0.558099        91.56451        0.1152611       -22.04059        0.1152611       -22.04073        0.5580975        91.56449
4.6994                 0.5550444        90.76051        0.1105393       -22.56093        0.1105394        -22.5611        0.5550429        90.76049
4.7008                 0.5519228        89.94848        0.1057162       -23.07998        0.1057163       -23.08014        0.5519213        89.94847
4.7022                 0.5487241        89.12803        0.1007839       -23.58914        0.1007839        -23.5893        0.5487226        89.12805
4.7036                 0.5454378        88.29884       0.09573589        -24.0773       0.09573585       -24.07749        0.5454362        88.29887
4.705                  0.5420535        87.46068       0.09056753       -24.53033       0.09056746        -24.5305        0.5420519        87.46072
4.7064                 0.5385606        86.61336       0.08527601       -24.92982       0.08527591       -24.93004        0.5385591        86.61342
4.7078                  0.534949        85.75685       0.07986065       -25.25177       0.07986055       -25.25199        0.5349474        85.75693
4.7092                 0.5312083        84.89119       0.07432334       -25.46425        0.0743232       -25.46445        0.5312069        84.89128
4.7106                 0.5273289         84.0165       0.06866903        -25.5237       0.06866888       -25.52391        0.5273276        84.01659
4.712                  0.5233009        83.13298       0.06290681       -25.36972       0.06290664       -25.36994        0.5232995        83.13307
4.7134                 0.5191151        82.24096       0.05705139       -24.91579       0.05705119       -24.91601        0.5191139        82.24104
4.7148                  0.514763         81.3408       0.05112588       -24.03422       0.05112567       -24.03444        0.5147618        81.34094
4.7162                 0.5102361        80.43305       0.04516687       -22.52975       0.04516663       -22.52997        0.5102349        80.43319
4.7176                 0.5055268        79.51826       0.03923392       -20.09235       0.03923366       -20.09256        0.5055257         79.5184
4.719                  0.5006281         78.5971       0.03342881       -16.21241       0.03342854        -16.2126        0.5006271        78.59727
4.7204                 0.4955337        77.67037       0.02793539       -10.03771        0.0279351       -10.03783        0.4955327        77.67051
4.7218                 0.4902378        76.73886       0.02310031       -0.212363       0.02310002      -0.2123269        0.4902369        76.73905
4.7232                 0.4847356        75.80361       0.01955973        14.85287       0.01955946         14.8532        0.4847348        75.80378
4.7246                 0.4790231        74.86561       0.01822988        34.87455       0.01822968        34.87518        0.4790224         74.8658
4.726                   0.473097        73.92601       0.01968594        55.04269       0.01968584        55.04349        0.4730965        73.92623
4.7274                  0.466955        72.98608       0.02350362        70.34286       0.02350362        70.34352        0.4669546        72.98631
4.7288                 0.4605958        72.04719       0.02882128        80.27935       0.02882135         80.2799        0.4605954        72.04741
4.7302                 0.4540185        71.11076       0.03500529        86.41719       0.03500541         86.4176        0.4540182        71.11099
4.7316                 0.4472238        70.17839        0.0417011         90.1411       0.04170125        90.14142        0.4472236        70.17861
4.733                  0.4402131        69.25177       0.04871602        92.32765       0.04871619        92.32787         0.440213          69.252
4.7344                 0.4329886         68.3327       0.05593914        93.50092       0.05593933        93.50114        0.4329886        68.33295
4.7358                 0.4255538        67.42318       0.06330104        93.97923       0.06330124        93.97939        0.4255539        67.42344
4.7372                  0.417913        66.52532       0.07075432        93.96251       0.07075454        93.96264        0.4179132        66.52557
4.7386                 0.4100715        65.64134       0.07826389         93.5812       0.07826411        93.58128        0.4100719        65.64159
4.74                    0.402036        64.77375       0.08580182        92.92336       0.08580205        92.92345        0.4020363          64.774
4.7414                 0.3938136        63.92515       0.09334461        92.05054       0.09334484        92.05059        0.3938141        63.92541
4.7428                 0.3854129        63.09836        0.1008716         91.0068        0.1008718        91.00686        0.3854135        63.09864
4.7442                 0.3768435        62.29646        0.1083639        89.82465        0.1083642        89.82471        0.3768441        62.29674
4.7456                 0.3681159        61.52281        0.1158042        88.52851        0.1158044         88.5286        0.3681167        61.52309
4.747                  0.3592419        60.78099        0.1231757        87.13725         0.123176        87.13728        0.3592428        60.78124
4.7484                 0.3502342        60.07488        0.1304628         85.6655        0.1304631        85.66553        0.3502352        60.07513
4.7498                 0.3411068        59.40875        0.1376503        84.12495        0.1376505        84.12498        0.3411078          59.409
4.7512                 0.3318747        58.78721        0.1447235        82.52503        0.1447238        82.52505        0.3318757        58.78746
4.7526                 0.3225542        58.21541        0.1516683        80.87345        0.1516685        80.87347        0.3225553        58.21563
4.754                  0.3131629        57.69872        0.1584709         79.1766        0.1584711         79.1766        0.3131641        57.69897
4.7554                 0.3037197         57.2433        0.1651181        77.43983        0.1651183        77.43985        0.3037209        57.24349
4.7568                 0.2942448        56.85571        0.1715971        75.66766        0.1715974        75.66766         0.294246        56.85589
4.7582                 0.2847601        56.54317        0.1778956        73.86397        0.1778959        73.86397        0.2847613        56.54335
4.7596                 0.2752889         56.3136        0.1840018        72.03212         0.184002        72.03213        0.2752903        56.31378
4.761                  0.2658568        56.17567        0.1899042        70.17497        0.1899044        70.17498        0.2658581        56.17582
4.7624                 0.2564906        56.13875        0.1955921        68.29509        0.1955923        68.29512        0.2564919        56.13888
4.7638                 0.2472199        56.21309        0.2010551        66.39476        0.2010553        66.39476        0.2472212        56.21324
4.7652                 0.2380763        56.40971        0.2062834        64.47587        0.2062836        64.47587        0.2380776        56.40984
4.7666                  0.229094        56.74042        0.2112679        62.54031        0.2112681        62.54031        0.2290954        56.74051
4.768                  0.2203104        57.21766        0.2159999        60.58961        0.2160001        60.58961        0.2203116        57.21773
4.7694                 0.2117653        57.85443        0.2204713        58.62525        0.2204715        58.62525        0.2117665        57.85448
4.7708                 0.2035022        58.66392        0.2246747        56.64854        0.2246749        56.64854        0.2035034        58.66394
4.7722                 0.1955678         59.6591        0.2286032        54.66067        0.2286034        54.66067         0.195569        59.65908
4.7736                 0.1880121        60.85209        0.2322507        52.66272        0.2322509        52.66273        0.1880132        60.85204
4.775                  0.1808881        62.25333        0.2356115        50.65574        0.2356117        50.65574        0.1808891        62.25325
4.7764                 0.1742514        63.87048        0.2386806        48.64063        0.2386807        48.64063        0.1742523        63.87037
4.7778                 0.1681591        65.70717        0.2414536        46.61825        0.2414538        46.61825          0.16816        65.70704
4.7792                 0.1626687        67.76146         0.243927        44.58942        0.2439271        44.58942        0.1626695        67.76128
4.7806                 0.1578358        70.02443        0.2460974        42.55489        0.2460976         42.5549        0.1578366        70.02422
4.782                   0.153712        72.47891        0.2479626        40.51535        0.2479627        40.51535        0.1537126         72.4787
4.7834                 0.1503416        75.09882        0.2495206        38.47147        0.2495208        38.47147        0.1503421        75.09859
4.7848                  0.147759        77.84917        0.2507703        36.42385        0.2507704        36.42385        0.1477595        77.84892
4.7862                 0.1459858        80.68724        0.2517109        34.37311         0.251711        34.37311        0.1459861          80.687
4.7876                 0.1450284        83.56484        0.2523426        32.31978        0.2523427        32.31978        0.1450286        83.56458
4.789                  0.1448773        86.43132        0.2526659        30.26441        0.2526661        30.26441        0.1448774        86.43106
4.7904                 0.1455071        89.23699        0.2526819         28.2075        0.2526821         28.2075        0.1455071        89.23679
4.7918                 0.1468778         91.9367        0.2523926        26.14954        0.2523927        26.14954        0.1468778        91.93645
4.7932                 0.1489378          94.492           0.2518          24.091        0.2518002          24.091        0.1489377        94.49184
4.7946                 0.1516266        96.87321        0.2509072        22.03234        0.2509074        22.03234        0.1516264        96.87303
4.796                  0.1548781        99.05949        0.2497175        19.97401        0.2497177        19.97401        0.1548779        99.05934
4.7974                 0.1586243        101.0387        0.2482349        17.91643         0.248235        17.91643         0.158624        101.0385
4.7988                 0.1627972         102.806        0.2464637        15.86004        0.2464638        15.86004        0.1627969         102.806
4.8002                 0.1673312        104.3631        0.2444089        13.80525         0.244409        13.80525        0.1673308         104.363
4.8016                 0.1721645        105.7159        0.2420759        11.75249         0.242076        11.75249        0.1721641        105.7159
4.803                  0.1772397        106.8738        0.2394705        9.702176        0.2394707        9.702176        0.1772393        106.8738
4.8044                 0.1825046        107.8482        0.2365992         7.65472        0.2365993         7.65472        0.1825042        107.8481
4.8058                 0.1879117        108.6515        0.2334684         5.61055        0.2334685         5.61055        0.1879114        108.6516
4.8072                 0.1934188        109.2969        0.2300855        3.570092        0.2300856        3.570091        0.1934185        109.2969
4.8086                 0.1989881        109.7972        0.2264579        1.533786         0.226458        1.533786        0.1989878        109.7972
4.81                   0.2045861        110.1649        0.2225935      -0.4979167        0.2225936      -0.4979172        0.2045857        110.1649
4.8114                  0.210183        110.4118        0.2185006       -2.524552        0.2185007       -2.524552        0.2101828        110.4119
4.8128                  0.215753        110.5491        0.2141877       -4.545635        0.2141878       -4.545636        0.2157528        110.5492
4.8142                 0.2212731         110.587        0.2096637        -6.56066        0.2096638       -6.560661        0.2212729        110.5871
4.8156                 0.2267233        110.5351        0.2049377       -8.569096        0.2049378       -8.569099        0.2267231        110.5352
4.817                  0.2320858         110.402        0.2000193       -10.57038        0.2000195       -10.57038        0.2320857        110.4021
4.8184                 0.2373455        110.1955        0.1949182       -12.56391        0.1949183       -12.56391        0.2373454        110.1956
4.8198                 0.2424891         109.923        0.1896442       -14.54904        0.1896443       -14.54904         0.242489        109.9231
4.8212                 0.2475048        109.5909        0.1842075       -16.52509        0.1842076       -16.52509        0.2475048         109.591
4.8226                 0.2523831        109.2052        0.1786184       -18.49129        0.1786186        -18.4913        0.2523831        109.2053
4.824                  0.2571153        108.7712        0.1728875       -20.44683        0.1728876       -20.44684        0.2571153        108.7714
4.8254                 0.2616943        108.2939        0.1670253       -22.39081        0.1670255       -22.39082        0.2616944        108.2941
4.8268                 0.2661141        107.7777        0.1610427       -24.32222        0.1610428       -24.32222        0.2661143        107.7778
4.8282                   0.27037        107.2266        0.1549505       -26.23993        0.1549506       -26.23994        0.2703702        107.2267
4.8296                  0.274458        106.6442        0.1487597        -28.1427        0.1487598       -28.14271        0.2744582        106.6443
4.831                  0.2783751        106.0339        0.1424812       -30.02909        0.1424813        -30.0291        0.2783753         106.034
4.8324                 0.2821191        105.3988        0.1361261       -31.89747        0.1361262       -31.89748        0.2821193        105.3989
4.8338                 0.2856886        104.7415        0.1297056       -33.74593        0.1297056       -33.74595        0.2856889        104.7416
4.8352                 0.2890828        104.0645        0.1232305       -35.57227        0.1232306       -35.57229        0.2890831        104.0646
4.8366                 0.2923017        103.3703        0.1167121       -37.37387        0.1167122       -37.37388         0.292302        103.3704
4.838                  0.2953456        102.6607        0.1101613       -39.14757        0.1101614       -39.14759        0.2953459        102.6608
4.8394                 0.2982155        101.9378        0.1035891       -40.88961        0.1035892       -40.88964        0.2982158        101.9379
4.8408                 0.3009129        101.2032       0.09700629        -42.5953       0.09700639       -42.59532        0.3009133        101.2033
4.8422                 0.3034396        100.4585       0.09042377       -44.25879       0.09042385       -44.25882          0.30344        100.4586
4.8436                 0.3057979        99.70514        0.0838522       -45.87265       0.08385228       -45.87268        0.3057983        99.70524
4.845                  0.3079903        98.94438        0.0773023       -47.42724       0.07730236       -47.42728        0.3079907        98.94447
4.8464                 0.3100197        98.17737       0.07078465       -48.90978       0.07078472       -48.90981        0.3100201        98.17747
4.8478                 0.3118893        97.40516       0.06430988       -50.30283       0.06430995       -50.30288        0.3118897        97.40527
4.8492                 0.3136024         96.6287       0.05788875       -51.58206       0.05788881       -51.58212        0.3136029        96.62879
4.8506                 0.3151625        95.84882       0.05153228       -52.71214       0.05153233       -52.71221         0.315163        95.84891
4.852                  0.3165734        95.06625       0.04525209       -53.63986       0.04525213       -53.63994        0.3165739        95.06636
4.8534                 0.3178389        94.28169       0.03906113       -54.28084       0.03906116       -54.28095        0.3178394        94.28178
4.8548                 0.3189628        93.49569       0.03297496       -54.49316         0.032975       -54.49327        0.3189633        93.49577
4.8562                 0.3199492        92.70875       0.02701487       -54.01833        0.0270149       -54.01848        0.3199497        92.70883
4.8576                 0.3208019        91.92134       0.02121564       -52.33493       0.02121566       -52.33512        0.3208024        91.92141
4.859                  0.3215249        91.13377       0.01564916       -48.23288       0.01564917       -48.23316        0.3215254        91.13385
4.8604                 0.3221222        90.34639       0.01051413       -38.33282       0.01051411       -38.33322        0.3221227        90.34647
4.8618                 0.3225976        89.55946      0.006570886       -12.01245      0.006570835       -12.01292        0.3225981        89.55954
4.8632                  0.322955        88.77317      0.006221098        37.23024      0.006221024        37.23034        0.3229555        88.77324
4.8646                 0.3231981        87.98768      0.009637133        66.67671       0.00963708        66.67702        0.3231986        87.98773
4.866                  0.3233304        87.20306       0.01418864        77.78866        0.0141886        77.78892        0.3233309        87.20312
4.8674                 0.3233554        86.41944       0.01896226        82.43538       0.01896223        82.43559        0.3233559        86.41951
4.8688                 0.3232764        85.63682       0.02372992        84.47271       0.02372991        84.47287         0.323277         85.6369
4.8702                 0.3230967        84.85524       0.02841505        85.24998       0.02841504        85.25013        0.3230973        84.85529
4.8716                 0.3228192        84.07465       0.03298452        85.33777       0.03298451        85.33791        0.3228197         84.0747