! TOUCHSTONE file generated by CST MICROWAVE STUDIO
! Date and time: Sat Nov 30 03:28:47 2024
! Project name: test_tuning.cst
! Parameters = {airCoaxOuterDiameter=3; chamferAngle=45; chamferWidth=14; connectorLength=10; drillingHoleDiameter=4.1; feedLength=60; flareDiameter=130; flareLength=70; gratingDistance=0; gratingGap=1.90274; outletLength=30; polarizerLength=134; probe1Diameter=1.3; probe1Distance=14; probe1Length=12; probe2Diameter=1.3; probe2Distance=0; probe2Length=12; probeLength=12; smaInnerDiameter=1.3; smaOuterDiameter=4.1; transitionCoefficient=1.33; waveguideFeedLength=30; waveguideSide=50; waveguideThickness=3; wireCount=25; wireDiameter=1.17699}
! Header version: 2024
! Port assignment regex: !\s*Touchstone port\s*([0-9]+)\s*=\s*(CST MWS port|CST DES external port|CST DES block port)\s*(.+)\s* \(\"(.*)\"\)(\s*mode\s*([0-9]+))?.*
! Touchstone port assignment:
! Touchstone port 1 = CST MWS port 1 ("Input1")
! Touchstone port 2 = CST MWS port 2 ("Input2")
# GHz S MA R 50
4.6                    0.1976648        99.47735        0.2966216        91.30792        0.2966214        91.30796        0.1976673        99.47765
4.6014                  0.196679        101.2988        0.3003885        89.58143        0.3003883        89.58146        0.1966816        101.2991
4.6028                 0.1963233        103.1154        0.3038692        87.86795        0.3038689        87.86798         0.196326        103.1157
4.6042                 0.1965792        104.9045         0.307065        86.16731        0.3070648        86.16734        0.1965819        104.9046
4.6056                 0.1974209        106.6446        0.3099778        84.47938        0.3099776        84.47942        0.1974236        106.6447
4.607                  0.1988166        108.3168        0.3126096        82.80408        0.3126094        82.80411        0.1988193        108.3168
4.6084                  0.200729        109.9049        0.3149627        81.14138        0.3149625         81.1414        0.2007317        109.9049
4.6098                 0.2031173        111.3959        0.3170397        79.49125        0.3170394        79.49128          0.20312        111.3958
4.6112                 0.2059385          112.78        0.3188432        77.85373         0.318843        77.85376        0.2059412          112.78
4.6126                  0.209148        114.0506        0.3203765        76.22888        0.3203763        76.22891        0.2091506        114.0505
4.614                  0.2127014        115.2038        0.3216427        74.61678        0.3216425        74.61681         0.212704        115.2037
4.6154                 0.2165551        116.2384        0.3226455        73.01756        0.3226452        73.01759        0.2165577        116.2382
4.6168                 0.2206672         117.155        0.3233885        71.43137        0.3233883        71.43139        0.2206697        117.1548
4.6182                 0.2249974        117.9561        0.3238757        69.85837        0.3238755        69.85839        0.2249999        117.9559
4.6196                 0.2295084        118.6455        0.3241113        68.29878        0.3241111        68.29879        0.2295108        118.6452
4.621                  0.2341651        119.2278        0.3240997        66.75282        0.3240995        66.75282        0.2341675        119.2275
4.6224                 0.2389354        119.7083        0.3238455        65.22075        0.3238453        65.22075        0.2389377         119.708
4.6238                 0.2437898        120.0927        0.3233535        63.70288        0.3233533        63.70288        0.2437921        120.0925
4.6252                 0.2487015         120.387        0.3226287        62.19951        0.3226285        62.19951        0.2487037        120.3867
4.6266                 0.2536462        120.5969        0.3216764        60.71101        0.3216762        60.71101        0.2536482        120.5966
4.628                   0.258602        120.7283        0.3205018        59.23776        0.3205015        59.23777         0.258604         120.728
4.6294                 0.2635494        120.7868        0.3191106        57.78016        0.3191103        57.78016        0.2635514        120.7865
4.6308                 0.2684711        120.7779        0.3175085        56.33867        0.3175082        56.33866         0.268473        120.7776
4.6322                 0.2733514        120.7068        0.3157015        54.91376        0.3157013        54.91376        0.2733532        120.7064
4.6336                 0.2781766        120.5781        0.3136958        53.50595        0.3136956        53.50595        0.2781783        120.5778
4.635                  0.2829345        120.3966        0.3114977         52.1158        0.3114974         52.1158        0.2829363        120.3962
4.6364                 0.2876147        120.1663        0.3091137         50.7439        0.3091134         50.7439        0.2876164         120.166
4.6378                 0.2922077        119.8914        0.3065503        49.39087        0.3065501        49.39087        0.2922093         119.891
4.6392                 0.2967055        119.5753        0.3038147        48.05738        0.3038144        48.05738        0.2967071         119.575
4.6406                 0.3011012        119.2215        0.3009136        46.74415        0.3009133        46.74415        0.3011027        119.2212
4.642                  0.3053887        118.8331        0.2978544        45.45192        0.2978541        45.45192        0.3053902        118.8329
4.6434                  0.309563         118.413        0.2946444        44.18151        0.2946441         44.1815        0.3095644        118.4127
4.6448                 0.3136198        117.9637        0.2912911        42.93373        0.2912908        42.93373        0.3136212        117.9634
4.6462                 0.3175555        117.4877        0.2878024        41.70951        0.2878021         41.7095        0.3175569        117.4874
4.6476                 0.3213673        116.9871         0.284186        40.50975        0.2841856        40.50975        0.3213685        116.9869
4.649                  0.3250526         116.464        0.2804499        39.33546        0.2804496        39.33546        0.3250539        116.4638
4.6504                 0.3286098        115.9203        0.2766025        38.18768        0.2766022        38.18767         0.328611          115.92
4.6518                 0.3320373        115.3575         0.272652        37.06747        0.2726517        37.06747        0.3320386        115.3573
4.6532                 0.3353343        114.7773         0.268607        35.97599        0.2686067          35.976        0.3353355         114.777
4.6546                 0.3384999        114.1809        0.2644762        34.91443        0.2644759        34.91443        0.3385011        114.1807
4.656                   0.341534        113.5698        0.2602683          33.884         0.260268          33.884        0.3415351        113.5696
4.6574                 0.3444362         112.945        0.2559923          32.886         0.255992          32.886        0.3444373        112.9448
4.6588                 0.3472068        112.3075        0.2516574        31.92176         0.251657        31.92177        0.3472079        112.3073
4.6602                  0.349846        111.6584        0.2472727        30.99265        0.2472723        30.99266        0.3498471        111.6582
4.6616                 0.3523542        110.9985        0.2428475        30.10007        0.2428472        30.10008        0.3523553        110.9983
4.663                  0.3547319        110.3285        0.2383915        29.24548        0.2383911        29.24549         0.354733        110.3283
4.6644                 0.3569799        109.6491         0.233914        28.43033        0.2339137        28.43034         0.356981        109.6489
4.6658                 0.3590987         108.961        0.2294249        27.65612        0.2294245        27.65614        0.3590998        108.9608
4.6672                 0.3610892        108.2647        0.2249337        26.92433        0.2249334        26.92435        0.3610903        108.2645
4.6686                 0.3629521        107.5608        0.2204504        26.23647        0.2204501        26.23649        0.3629531        107.5606
4.67                   0.3646881        106.8496        0.2159847          25.594        0.2159844        25.59402        0.3646892        106.8494
4.6714                  0.366298        106.1316        0.2115466        24.99835        0.2115463        24.99838         0.366299        106.1314
4.6728                 0.3677825        105.4072        0.2071459         24.4509        0.2071455        24.45093        0.3677836         105.407
4.6742                 0.3691424        104.6766        0.2027923        23.95296         0.202792        23.95299        0.3691435        104.6765
4.6756                 0.3703782        103.9403        0.1984956         23.5057        0.1984953        23.50575        0.3703793        103.9401
4.677                  0.3714906        103.1983        0.1942655        23.11021        0.1942652        23.11026        0.3714917        103.1982
4.6784                 0.3724801        102.4511        0.1901114        22.76737        0.1901111        22.76741        0.3724811        102.4509
4.6798                  0.373347        101.6987        0.1860425        22.47787        0.1860423        22.47791        0.3733481        101.6985
4.6812                 0.3740918        100.9414        0.1820679        22.24217        0.1820676        22.24222        0.3740929        100.9413
4.6826                 0.3747149        100.1794        0.1781962        22.06045        0.1781959        22.06051         0.374716        100.1792
4.684                  0.3752163        99.41275        0.1744355        21.93259        0.1744353        21.93265        0.3752175        99.41258
4.6854                 0.3755963         98.6417        0.1707938        21.85811        0.1707936        21.85817        0.3755975        98.64153
4.6868                 0.3758549        97.86635        0.1672781        21.83612        0.1672779        21.83619        0.3758561        97.86617
4.6882                 0.3759921        97.08685        0.1638951        21.86535         0.163895        21.86543        0.3759932        97.08666
4.6896                 0.3760079        96.30333        0.1606506        21.94406        0.1606504        21.94413         0.376009        96.30315
4.691                   0.375902        95.51593        0.1575496        22.07003        0.1575494        22.07011        0.3759031        95.51578
4.6924                 0.3756742        94.72481        0.1545962         22.2406         0.154596        22.24068        0.3756754        94.72463
4.6938                 0.3753244        93.93006        0.1517935         22.4526        0.1517934        22.45269        0.3753256        93.92989
4.6952                 0.3748522        93.13185        0.1491436        22.70242        0.1491435         22.7025        0.3748533        93.13168
4.6966                 0.3742571        92.33034        0.1466475          22.986        0.1466473        22.98609        0.3742583        92.33016
4.698                  0.3735389        91.52567        0.1443048         23.2989        0.1443047        23.29898        0.3735401        91.52548
4.6994                 0.3726973        90.71802        0.1421143        23.63633        0.1421142        23.63642        0.3726984        90.71784
4.7008                 0.3717316        89.90759        0.1400733        23.99327        0.1400732        23.99336        0.3717327         89.9074
4.7022                 0.3706416        89.09455        0.1381779        24.36447        0.1381779        24.36456        0.3706427        89.09436
4.7036                 0.3694268        88.27913        0.1364231        24.74461        0.1364231        24.74469        0.3694279        88.27893
4.705                  0.3680868        87.46154        0.1348028        25.12835        0.1348028        25.12843        0.3680879        87.46135
4.7064                 0.3666214        86.64206        0.1333098        25.51045        0.1333097        25.51054        0.3666225        86.64186
4.7078                 0.3650302        85.82093        0.1319357        25.88587        0.1319357        25.88595        0.3650312        85.82073
4.7092                 0.3633129        84.99846        0.1306717        26.24981        0.1306717        26.24988        0.3633139        84.99826
4.7106                 0.3614694        84.17495        0.1295079        26.59783        0.1295079        26.59791        0.3614704        84.17472
4.712                  0.3594996        83.35073        0.1284338         26.9259        0.1284339        26.92598        0.3595006         83.3505
4.7134                 0.3574035        82.52615        0.1274386        27.23048        0.1274387        27.23053        0.3574045        82.52598
4.7148                 0.3551812        81.70167         0.126511         27.5085         0.126511        27.50856        0.3551822        81.70144
4.7162                 0.3528331        80.87762        0.1256394        27.75747        0.1256394         27.7575         0.352834        80.87739
4.7176                 0.3503592        80.05454        0.1248123        27.97542        0.1248123        27.97545        0.3503602        80.05428
4.719                  0.3477604        79.23279        0.1240181        28.16087        0.1240181        28.16092        0.3477613        79.23257
4.7204                 0.3450371        78.41295        0.1232454        28.31303        0.1232454        28.31308        0.3450379        78.41269
4.7218                 0.3421901        77.59555        0.1224829        28.43149         0.122483        28.43152         0.342191        77.59529
4.7232                 0.3392206         76.7812        0.1217199        28.51643          0.12172        28.51646        0.3392214        76.78094
4.7246                 0.3361297        75.97044        0.1209459        28.56844         0.120946        28.56847        0.3361304        75.97018
4.726                  0.3329187        75.16397        0.1201509        28.58859        0.1201509        28.58859        0.3329194        75.16374
4.7274                 0.3295893        74.36254        0.1193255        28.57837        0.1193255         28.5784          0.32959        74.36228
4.7288                 0.3261432        73.56677        0.1184607        28.53971        0.1184607        28.53971        0.3261438        73.56649
4.7302                 0.3225825        72.77755        0.1175485        28.47482        0.1175485        28.47482        0.3225831        72.77729
4.7316                 0.3189094        71.99563        0.1165812        28.38625        0.1165812         28.3863          0.31891        71.99537
4.733                  0.3151264        71.22194        0.1155518        28.27706        0.1155518        28.27706         0.315127        71.22169
4.7344                 0.3112364        70.45743        0.1144543        28.15037        0.1144543        28.15037        0.3112369        70.45718
4.7358                 0.3072422        69.70303        0.1132831        28.00983        0.1132831         28.0098        0.3072426        69.70274
4.7372                 0.3031471        68.95979        0.1120336        27.85929        0.1120335        27.85929        0.3031475         68.9595
4.7386                 0.2989547        68.22887        0.1107016        27.70302        0.1107015        27.70299         0.298955        68.22858
4.74                   0.2946687        67.51138         0.109284        27.54551        0.1092839        27.54551        0.2946689        67.51109
4.7414                 0.2902932        66.80855        0.1077783        27.39176        0.1077783        27.39175        0.2902934        66.80823
4.7428                 0.2858325         66.1217        0.1061829        27.24708        0.1061828        27.24708        0.2858327        66.12141
4.7442                 0.2812913        65.45226        0.1044969        27.11724        0.1044969        27.11723        0.2812914        65.45191
4.7456                 0.2766744        64.80156        0.1027205         27.0085        0.1027204         27.0085        0.2766746        64.80127
4.747                  0.2719872        64.17128        0.1008544        26.92768        0.1008544        26.92768        0.2719873        64.17097
4.7484                 0.2672351        63.56295       0.09890064        26.88221       0.09890056        26.88221        0.2672352        63.56264
4.7498                 0.2624239         62.9783       0.09686193        26.88022       0.09686184        26.88022        0.2624239        62.97802
4.7512                 0.2575598        62.41917       0.09474223        26.93062       0.09474212        26.93063        0.2575597        62.41886
4.7526                  0.252649        61.88746       0.09254657        27.04325       0.09254646        27.04327        0.2526489        61.88714
4.754                  0.2476985        61.38515       0.09028126        27.22893       0.09028114        27.22895        0.2476983        61.38483
4.7554                 0.2427151         60.9144         0.087954         27.4996       0.08795389        27.49962        0.2427149        60.91405
4.7568                 0.2377063        60.47735       0.08557399        27.86843       0.08557387        27.86846        0.2377061        60.47703
4.7582                 0.2326798         60.0764       0.08315218        28.34994       0.08315206        28.34997        0.2326795        60.07611
4.7596                 0.2276435        59.71402       0.08070145        28.96006       0.08070133         28.9601        0.2276431        59.71371
4.761                  0.2226058        59.39272       0.07823683        29.71616       0.07823671        29.71622        0.2226054         59.3924
4.7624                 0.2175753        59.11518       0.07577581        30.63701       0.07577568        30.63707        0.2175748        59.11487
4.7638                 0.2125611         58.8842       0.07333866        31.74253       0.07333854         31.7426        0.2125606         58.8839
4.7652                 0.2075724        58.70261        0.0709487        33.05342       0.07094858        33.05351        0.2075719        58.70233
4.7666                  0.202619        58.57339       0.06863259        34.59047       0.06863247        34.59057        0.2026184        58.57311
4.768                  0.1977108        58.49959       0.06642053        36.37342       0.06642044        36.37353        0.1977101        58.49929
4.7694                 0.1928581        58.48425       0.06434642        38.41935       0.06434633        38.41948        0.1928575        58.48397
4.7708                 0.1880717        58.53051       0.06244754        40.74055       0.06244747        40.74069         0.188071        58.53024
4.7722                 0.1833625        58.64147       0.06076418        43.34175       0.06076412         43.3419        0.1833617         58.6412
4.7736                 0.1787417        58.82015       0.05933852        46.21712       0.05933848        46.21729        0.1787409        58.81989
4.775                  0.1742208         59.0695       0.05821309        49.34725       0.05821307        49.34742          0.17422        59.06926
4.7764                 0.1698115        59.39229        0.0574286        52.69704       0.05742859        52.69723        0.1698107        59.39206
4.7778                 0.1655258        59.79104       0.05702132        56.21522       0.05702133        56.21541         0.165525        59.79082
4.7792                 0.1613758        60.26794       0.05702037         59.8362       0.05702041        59.83639        0.1613749        60.26774
4.7806                 0.1573733        60.82476       0.05744545        63.48456       0.05744551        63.48474        0.1573724        60.82458
4.782                  0.1535305        61.46272       0.05830522        67.08159        0.0583053        67.08175        0.1535296        61.46256
4.7834                 0.1498592        62.18238       0.05959704        70.55251       0.05959715        70.55265        0.1498583        62.18224
4.7848                 0.1463709        62.98356       0.06130787        73.83278       0.06130799        73.83289          0.14637        62.98345
4.7862                 0.1430766        63.86516       0.06341605        76.87247       0.06341619        76.87257        0.1430757        63.86506
4.7876                 0.1399867        64.82508       0.06589373        79.63777       0.06589388        79.63788        0.1399858        64.82501
4.789                  0.1371108        65.86012       0.06870927        82.11046       0.06870944        82.11054        0.1371099        65.86008
4.7904                 0.1344574        66.96593       0.07182944        84.28551       0.07182961        84.28557        0.1344565        66.96593
4.7918                 0.1320337        68.13694         0.075221        86.16816       0.07522118        86.16824        0.1320328        68.13697
4.7932                 0.1298456        69.36643       0.07885198        87.77081       0.07885217        87.77087        0.1298447        69.36647
4.7946                 0.1278971        70.64646       0.08269236        89.11049       0.08269256        89.11052        0.1278963        70.64654
4.796                  0.1261907        71.96817       0.08671441        90.20661        0.0867146        90.20661        0.1261899        71.96826
4.7974                 0.1247267        73.32175       0.09089279        91.07941       0.09089299        91.07941        0.1247259        73.32188
4.7988                 0.1235034        74.69687       0.09520452        91.74895       0.09520473        91.74895        0.1235027        74.69701
4.8002                 0.1225172         76.0827       0.09962885        92.23446       0.09962905        92.23446        0.1225165        76.08287
4.8016                 0.1217624        77.46837         0.104147        92.55385        0.1041472        92.55385        0.1217617        77.46857
4.803                  0.1212314        78.84321         0.108742        92.72363        0.1087422        92.72361        0.1212307         78.8434
4.8044                 0.1209147         80.1969        0.1133984        92.75876        0.1133986        92.75876        0.1209141        80.19713
4.8058                 0.1208014        81.51994        0.1181023        92.67281        0.1181025        92.67278        0.1208009        81.52018
4.8072                 0.1208793        82.80364        0.1228408         92.4779        0.1228409        92.47787        0.1208788        82.80392
4.8086                 0.1211349        84.04044        0.1276021         92.1849        0.1276023        92.18488        0.1211344        84.04071
4.81                   0.1215541        85.22389        0.1323755        91.80358        0.1323756        91.80354        0.1215537        85.22417
4.8114                 0.1221222        86.34875        0.1371509        91.34257         0.137151        91.34253        0.1221218        86.34904
4.8128                 0.1228242          87.411         0.141919        90.80961        0.1419192        90.80957        0.1228239        87.41129
4.8142                 0.1236452        88.40777        0.1466712        90.21164        0.1466714         90.2116        0.1236449        88.40807
4.8156                 0.1245703        89.33729        0.1513994        89.55484        0.1513996         89.5548        0.1245701        89.33761
4.817                   0.125585        90.19875         0.156096        88.84477        0.1560961        88.84473        0.1255848        90.19905
4.8184                 0.1266754        90.99224        0.1607538        88.08639        0.1607539        88.08635        0.1266753        90.99254
4.8198                 0.1278282        91.71856         0.165366        87.28417        0.1653661        87.28414         0.127828        91.71885
4.8212                 0.1290306        92.37918        0.1699264        86.44217        0.1699265        86.44213        0.1290305        92.37946
4.8226                  0.130271        92.97604         0.174429        85.56401         0.174429        85.56395        0.1302709        92.97634
4.824                  0.1315382        93.51157         0.178868        84.65296        0.1788681        84.65291        0.1315382        93.51185
4.8254                 0.1328221        93.98843        0.1832381        83.71205        0.1832382        83.71202        0.1328221        93.98869
4.8268                 0.1341135        94.40952        0.1875343        82.74399        0.1875343        82.74395        0.1341135        94.40978
4.8282                 0.1354037        94.77793        0.1917517        81.75127        0.1917518        81.75121        0.1354038        94.77821
4.8296                 0.1366853        95.09686        0.1958858        80.73614        0.1958859        80.73608        0.1366854         95.0971
4.831                  0.1379514        95.36945        0.1999324        79.70067        0.1999325        79.70063        0.1379515         95.3697
4.8324                 0.1391959        95.59896        0.2038875        78.64681        0.2038875        78.64675         0.139196         95.5992
4.8338                 0.1404137        95.78853        0.2077471        77.57628        0.2077472        77.57625        0.1404138        95.78876
4.8352                 0.1416001        95.94126        0.2115079        76.49073        0.2115079        76.49068        0.1416003        95.94149
4.8366                 0.1427513        96.06019        0.2151665        75.39165        0.2151665        75.39162        0.1427515         96.0604
4.838                  0.1438642        96.14822        0.2187197        74.28046        0.2187197        74.28043        0.1438644        96.14843
4.8394                  0.144936        96.20816        0.2221648        73.15841        0.2221648        73.15839        0.1449362        96.20837
4.8408                 0.1459649         96.2427         0.225499        72.02679        0.2254991        72.02675        0.1459651        96.24291
4.8422                 0.1469493        96.25439        0.2287201        70.88666        0.2287201        70.88663        0.1469495        96.25457
4.8436                 0.1478882        96.24563        0.2318257         69.7391        0.2318257        69.73908        0.1478885        96.24582
4.845                  0.1487813        96.21873        0.2348138        68.58515        0.2348138        68.58512        0.1487815        96.21891
4.8464                 0.1496285        96.17583        0.2376827         67.4257        0.2376827        67.42567        0.1496288        96.17601
4.8478                 0.1504302        96.11891        0.2404308        66.26165        0.2404308        66.26163        0.1504304        96.11909
4.8492                 0.1511871        96.04988        0.2430568        65.09384        0.2430568        65.09382        0.1511874        96.05006
4.8506                 0.1519004        95.97046        0.2455594        63.92308        0.2455594        63.92305        0.1519007        95.97062
4.852                  0.1525715        95.88224        0.2479377        62.75009        0.2479377        62.75008        0.1525718        95.88239
4.8534                 0.1532022        95.78664         0.250191        61.57562         0.250191         61.5756        0.1532024        95.78679
4.8548                 0.1537944        95.68502        0.2523187        60.40032        0.2523187         60.4003        0.1537946        95.68516
4.8562                 0.1543503        95.57855        0.2543204        59.22487        0.2543204        59.22485        0.1543506         95.5787
4.8576                 0.1548725        95.46828         0.256196        58.04986         0.256196        58.04985        0.1548727        95.46842
4.859                  0.1553633        95.35511        0.2579456        56.87593        0.2579455        56.87591        0.1553636        95.35526
4.8604                 0.1558257        95.23983        0.2595692        55.70361        0.2595691         55.7036         0.155826        95.23998
4.8618                 0.1562625        95.12309        0.2610673        54.53346        0.2610673        54.53345        0.1562628        95.12324
4.8632                 0.1566765        95.00542        0.2624405        53.36601        0.2624405        53.36601        0.1566768        95.00556
4.8646                 0.1570707         94.8872        0.2636896        52.20176        0.2636896        52.20176         0.157071        94.88733
4.866                  0.1574482        94.76868        0.2648154         51.0412        0.2648154         51.0412        0.1574485         94.7688
4.8674                 0.1578119        94.65001        0.2658191        49.88479         0.265819        49.88478        0.1578122        94.65013
4.8688                 0.1581648        94.53125        0.2667018        48.73298        0.2667018        48.73298        0.1581651        94.53137
4.8702                 0.1585097        94.41226        0.2674651        47.58621        0.2674651         47.5862          0.15851        94.41236
4.8716                 0.1588496        94.29285        0.2681104        46.44488        0.2681104        46.44488        0.1588498        94.29296