! TOUCHSTONE file generated by CST MICROWAVE STUDIO
! Date and time: Sat Nov 30 03:28:49 2024
! Project name: test_tuning.cst
! Parameters = {airCoaxOuterDiameter=3; chamferAngle=45; chamferWidth=22; connectorLength=10; drillingHoleDiameter=4.1; feedLength=60; flareDiameter=130; flareLength=70; gratingDistance=0; gratingGap=1.90274; outletLength=30; polarizerLength=134; probe1Diameter=1.3; probe1Distance=14; probe1Length=12; probe2Diameter=1.3; probe2Distance=0; probe2Length=12; probeLength=12; smaInnerDiameter=1.3; smaOuterDiameter=4.1; transitionCoefficient=1.33; waveguideFeedLength=30; waveguideSide=50; waveguideThickness=3; wireCount=25; wireDiameter=1.17699}
! Header version: 2024
! Port assignment regex: !\s*Touchstone port\s*([0-9]+)\s*=\s*(CST MWS port|CST DES external port|CST DES block port)\s*(.+)\s* \(\"(.*)\"\)(\s*mode\s*([0-9]+))?.*
! Touchstone port assignment:
! Touchstone port 1 = CST MWS port 1 ("Input1")
! Touchstone port 2 = CST MWS port 2 ("Input2")
# GHz S MA R 50
4.6                    0.3517795       -168.3776        0.5903964         52.9598        0.5903962        52.95983        0.3517801       -168.3777
4.6014                 0.3610072       -169.4952        0.5893009        51.96128        0.5893007        51.96131        0.3610079       -169.4952
4.6028                 0.3702909       -170.6265        0.5881212        50.96119        0.5881211        50.96122        0.3702916       -170.6266
4.6042                 0.3796189       -171.7725        0.5868569        49.95924        0.5868567        49.95926        0.3796197       -171.7725
4.6056                 0.3889784       -172.9336        0.5855067        48.95516        0.5855067        48.95518        0.3889792       -172.9337
4.607                  0.3983554       -174.1102        0.5840692        47.94873        0.5840692        47.94875        0.3983562       -174.1103
4.6084                 0.4077351       -175.3025        0.5825426        46.93971        0.5825425        46.93974         0.407736       -175.3025
4.6098                 0.4171019       -176.5105        0.5809245        45.92795        0.5809244        45.92797        0.4171028       -176.5105
4.6112                 0.4264394       -177.7341        0.5792123         44.9133        0.5792123        44.91332        0.4264403       -177.7341
4.6126                 0.4357306        -178.973        0.5774035        43.89569        0.5774034        43.89571        0.4357314        -178.973
4.614                  0.4449581        179.7731        0.5754951        42.87504         0.575495        42.87507         0.444959        179.7731
4.6154                 0.4541042        178.5048        0.5734842        41.85138        0.5734842         41.8514        0.4541051        178.5047
4.6168                 0.4631509        177.2226        0.5713679        40.82474        0.5713678        40.82476        0.4631518        177.2225
4.6182                 0.4720802        175.9273        0.5691432        39.79523        0.5691431        39.79524        0.4720811        175.9272
4.6196                 0.4808741        174.6196        0.5668073        38.76297        0.5668072        38.76299         0.480875        174.6196
4.621                  0.4895148        173.3005        0.5643577        37.72818        0.5643577        37.72819        0.4895157        173.3005
4.6224                 0.4979848        171.9709        0.5617919        36.69108        0.5617919        36.69109        0.4979857        171.9708
4.6238                 0.5062669        170.6317         0.559108        35.65197         0.559108        35.65198        0.5062678        170.6316
4.6252                 0.5143447         169.284         0.556304        34.61117        0.5563039        34.61118        0.5143455        169.2839
4.6266                 0.5222021        167.9289        0.5533786        33.56905        0.5533786        33.56906         0.522203        167.9288
4.628                  0.5298239        166.5675         0.550331        32.52602        0.5503309        32.52604        0.5298248        166.5674
4.6294                 0.5371958        165.2009        0.5471604        31.48253        0.5471603        31.48254        0.5371966        165.2008
4.6308                 0.5443042        163.8304         0.543867        30.43905        0.5438668        30.43906        0.5443049        163.8303
4.6322                 0.5511366        162.4572        0.5404511        29.39608         0.540451        29.39609        0.5511375        162.4571
4.6336                 0.5576818        161.0824        0.5369139        28.35415        0.5369138        28.35416        0.5576826        161.0823
4.635                  0.5639295        159.7072        0.5332569         27.3138        0.5332568        27.31381        0.5639302        159.7071
4.6364                 0.5698707         158.333         0.529482         26.2756        0.5294819        26.27561        0.5698714        158.3329
4.6378                 0.5754977        156.9608        0.5255921        25.24011        0.5255919        25.24012        0.5754983        156.9608
4.6392                 0.5808039         155.592          0.52159        24.20792        0.5215899        24.20792        0.5808045         155.592
4.6406                 0.5857847        154.2278        0.5174796        23.17958        0.5174795        23.17958        0.5857852        154.2277
4.642                  0.5904361        152.8693        0.5132651        22.15568        0.5132649        22.15568        0.5904365        152.8692
4.6434                  0.594756        151.5178        0.5089509        21.13677        0.5089508        21.13678        0.5947565        151.5177
4.6448                 0.5987439        150.1743        0.5045423         20.1234        0.5045422        20.12341        0.5987444        150.1743
4.6462                 0.6024005        148.8401        0.5000447        19.11609        0.5000446        19.11609        0.6024009        148.8401
4.6476                  0.605728        147.5163        0.4954639        18.11532        0.4954638        18.11533        0.6057284        147.5163
4.649                  0.6087299        146.2039        0.4908062        17.12157        0.4908061        17.12158        0.6087304        146.2039
4.6504                 0.6114118         144.904        0.4860779        16.13526        0.4860778        16.13526        0.6114121         144.904
4.6518                 0.6137799        143.6176        0.4812859        15.15676        0.4812858        15.15677        0.6137803        143.6175
4.6532                 0.6158422        142.3455        0.4764367        14.18641        0.4764366        14.18641        0.6158426        142.3455
4.6546                 0.6176082        141.0888        0.4715376        13.22447        0.4715375        13.22448        0.6176083        141.0888
4.656                   0.619088        139.8482        0.4665952        12.27118        0.4665951        12.27119        0.6190883        139.8482
4.6574                 0.6202934        138.6245        0.4616167        11.32669        0.4616166        11.32669        0.6202938        138.6244
4.6588                 0.6212375        137.4183        0.4566088        10.39108        0.4566087        10.39108        0.6212377        137.4182
4.6602                 0.6219338        136.2302        0.4515781        9.464379         0.451578        9.464384        0.6219341        136.2302
4.6616                 0.6223972        135.0608        0.4465312        8.546539        0.4465311        8.546544        0.6223975        135.0607
4.663                  0.6226431        133.9104        0.4414741        7.637441         0.441474        7.637446        0.6226433        133.9103
4.6644                 0.6226874        132.7793        0.4364126         6.73689        0.4364125        6.736895        0.6226877        132.7792
4.6658                  0.622547        131.6677         0.431352        5.844622        0.4313519        5.844628        0.6225471        131.6677
4.6672                 0.6222385        130.5757        0.4262972        4.960306        0.4262971        4.960311        0.6222387        130.5757
4.6686                 0.6217792        129.5032        0.4212524        4.083541        0.4212523        4.083547        0.6217793        129.5032
4.67                   0.6211861        128.4501        0.4162216        3.213867        0.4162215        3.213872        0.6211862        128.4501
4.6714                 0.6204761         127.416        0.4112077        2.350765        0.4112076         2.35077        0.6204763         127.416
4.6728                  0.619666        126.4005        0.4062132        1.493668        0.4062131        1.493672        0.6196662        126.4005
4.6742                 0.6187718        125.4031        0.4012402       0.6419645          0.40124       0.6419691         0.618772        125.4031
4.6756                 0.6178089         124.423        0.3962895      -0.2049883        0.3962894      -0.2049839        0.6178091         124.423
4.677                  0.6167919        123.4595        0.3913619       -1.047859        0.3913619       -1.047854        0.6167922        123.4595
4.6784                 0.6157345        122.5116        0.3864573       -1.887327        0.3864571       -1.887323        0.6157346        122.5116
4.6798                 0.6146488        121.5784        0.3815746       -2.724078        0.3815745       -2.724073        0.6146491        121.5784
4.6812                 0.6135463        120.6585        0.3767127       -3.558784        0.3767126        -3.55878        0.6135466        120.6585
4.6826                 0.6124365        119.7509        0.3718695         -4.3921        0.3718693       -4.392096        0.6124369        119.7509
4.684                  0.6113277        118.8543        0.3670424       -5.224647        0.3670423       -5.224644         0.611328        118.8543
4.6854                 0.6102266        117.9673        0.3622287       -6.057001        0.3622286       -6.056998        0.6102269        117.9673
4.6868                  0.609138        117.0884         0.357425       -6.889679        0.3574248       -6.889676        0.6091383        117.0885
4.6882                 0.6080654        116.2164        0.3526275       -7.723134        0.3526274       -7.723131        0.6080658        116.2164
4.6896                 0.6070104        115.3498        0.3478324       -8.557741        0.3478322       -8.557738        0.6070107        115.3498
4.691                  0.6059727         114.487        0.3430354       -9.393785        0.3430353       -9.393783         0.605973         114.487
4.6924                 0.6049507        113.6269        0.3382325       -10.23146        0.3382324       -10.23146        0.6049511        113.6269
4.6938                 0.6039413        112.7679        0.3334193       -11.07084        0.3334192       -11.07084        0.6039418        112.7679
4.6952                 0.6029396        111.9089        0.3285918       -11.91189        0.3285917       -11.91189        0.6029401        111.9089
4.6966                 0.6019393        111.0486        0.3237459       -12.75451        0.3237458       -12.75451        0.6019398        111.0486
4.698                  0.6009332         110.186        0.3188779       -13.59843        0.3188777        -13.5984        0.6009336         110.186
4.6994                 0.5999126          109.32        0.3139841       -14.44318         0.313984       -14.44317        0.5999131          109.32
4.7008                  0.598868        108.4497        0.3090617       -15.28832        0.3090615       -15.28832        0.5988685        108.4497
4.7022                 0.5977892        107.5744        0.3041078       -16.13317        0.3041076       -16.13317        0.5977896        107.5744
4.7036                 0.5966652        106.6934        0.2991204       -16.97692        0.2991202       -16.97692        0.5966656        106.6934
4.705                  0.5954845        105.8063        0.2940978       -17.81871        0.2940977       -17.81871         0.595485        105.8064
4.7064                 0.5942357        104.9128        0.2890392       -18.65747        0.2890391       -18.65747        0.5942361        104.9128
4.7078                 0.5929069        104.0125        0.2839442       -19.49203         0.283944       -19.49203        0.5929074        104.0125
4.7092                 0.5914867        103.1054        0.2788131       -20.32111         0.278813       -20.32111        0.5914872        103.1054
4.7106                 0.5899637        102.1917        0.2736471        -21.1433         0.273647        -21.1433        0.5899641        102.1917
4.712                  0.5883272        101.2714         0.268448       -21.95706        0.2684479       -21.95706        0.5883275        101.2714
4.7134                 0.5865667         100.345        0.2632184       -22.76077        0.2632182       -22.76077        0.5865671         100.345
4.7148                  0.584673        99.41291        0.2579615       -23.55271        0.2579614       -23.55271        0.5846733        99.41291
4.7162                 0.5826373        98.47568        0.2526815       -24.33106        0.2526813       -24.33106        0.5826376        98.47568
4.7176                 0.5804523        97.53401        0.2473831       -25.09394        0.2473829       -25.09394        0.5804526        97.53401
4.719                  0.5781116        96.58865        0.2420717       -25.83938        0.2420716       -25.83938        0.5781119        96.58865
4.7204                   0.57561        95.64046        0.2367535        -26.5654        0.2367534       -26.56539        0.5756103        95.64046
4.7218                 0.5729438         94.6904        0.2314353       -27.26995        0.2314352       -27.26995         0.572944         94.6904
4.7232                 0.5701104        93.73945        0.2261244         -27.951        0.2261243         -27.951        0.5701107        93.73945
4.7246                  0.567109        92.78864        0.2208285       -28.60653        0.2208284       -28.60653        0.5671092        92.78864
4.726                    0.56394        91.83907        0.2155559       -29.23454        0.2155557       -29.23453        0.5639402        91.83907
4.7274                 0.5606053        90.89185        0.2103151        -29.8331        0.2103149       -29.83311        0.5606055        90.89185
4.7288                 0.5571084         89.9481        0.2051149       -30.40041        0.2051148       -30.40041        0.5571086        89.94812
4.7302                 0.5534541        89.00892        0.1999643       -30.93476        0.1999641       -30.93476        0.5534543        89.00895
4.7316                 0.5496487        88.07543        0.1948722       -31.43465        0.1948721       -31.43464        0.5496489        88.07543
4.733                  0.5456997        87.14861        0.1898476       -31.89874        0.1898474       -31.89874        0.5456998        87.14864
4.7344                 0.5416162        86.22955         0.184899       -32.32599        0.1848988       -32.32599        0.5416163        86.22955
4.7358                 0.5374079         85.3191        0.1800346       -32.71563        0.1800345       -32.71562         0.537408        85.31913
4.7372                 0.5330861         84.4182        0.1752624        -33.0672        0.1752623        -33.0672        0.5330862         84.4182
4.7386                 0.5286628        83.52753        0.1705895       -33.38065        0.1705893       -33.38065        0.5286629        83.52755
4.74                   0.5241507        82.64772         0.166022       -33.65632        0.1660219       -33.65631        0.5241508        82.64774
4.7414                 0.5195632        81.77931        0.1615655       -33.89496        0.1615654       -33.89495        0.5195632        81.77931
4.7428                 0.5149142        80.92259        0.1572243       -34.09779        0.1572242       -34.09778        0.5149142        80.92262
4.7442                 0.5102176        80.07778        0.1530015        -34.2665        0.1530014       -34.26648        0.5102176        80.07781
4.7456                 0.5054876        79.24488         0.148899        -34.4032        0.1488988       -34.40319        0.5054877         79.2449
4.747                  0.5007383        78.42371        0.1449171       -34.51048        0.1449169       -34.51047        0.5007383        78.42374
4.7484                 0.4959831        77.61386        0.1410548       -34.59131        0.1410546       -34.59128        0.4959831        77.61392
4.7498                  0.491235        76.81476        0.1373095       -34.64899        0.1373093       -34.64897         0.491235        76.81479
4.7512                 0.4865063        76.02554        0.1336773       -34.68713        0.1336771       -34.68711        0.4865064        76.02557
4.7526                 0.4818082        75.24523        0.1301525       -34.70953        0.1301523       -34.70951        0.4818083        75.24528
4.754                  0.4771506        74.47256        0.1267282       -34.72007         0.126728       -34.72003        0.4771506        74.47264
4.7554                 0.4725421        73.70615         0.123396        -34.7226        0.1233958       -34.72256        0.4725421        73.70618
4.7568                 0.4679896        72.94426        0.1201464       -34.72087        0.1201462       -34.72082        0.4679896        72.94432
4.7582                 0.4634984        72.18511        0.1169687        -34.7183        0.1169685       -34.71825        0.4634984        72.18513
4.7596                 0.4590719        71.42669        0.1138513       -34.71795        0.1138511       -34.71789        0.4590719        71.42672
4.761                  0.4547115        70.66685        0.1107821       -34.72233        0.1107819       -34.72226        0.4547115         70.6669
4.7624                 0.4504165        69.90332        0.1077484       -34.73324        0.1077482       -34.73317        0.4504165        69.90338
4.7638                 0.4461841        69.13373        0.1047372       -34.75172         0.104737       -34.75165        0.4461841        69.13378
4.7652                 0.4420095        68.35567        0.1017355       -34.77784        0.1017353       -34.77776        0.4420095         68.3557
4.7666                 0.4378856        67.56661       0.09873064       -34.81058       0.09873046       -34.81049        0.4378856        67.56664
4.768                  0.4338036        66.76415       0.09571026       -34.84769        0.0957101       -34.84759        0.4338036        66.76418
4.7694                 0.4297523        65.94574       0.09266277       -34.88554       0.09266262       -34.88543        0.4297524        65.94583
4.7708                  0.425719        65.10909       0.08957745       -34.91888       0.08957729       -34.91876         0.425719        65.10915
4.7722                 0.4216891        64.25185        0.0864447       -34.94065       0.08644454       -34.94053        0.4216892         64.2519
4.7736                 0.4176467        63.37182       0.08325627       -34.94168       0.08325613       -34.94155        0.4176467        63.37185
4.775                  0.4135742        62.46691        0.0800055       -34.91029       0.08000538       -34.91013        0.4135743        62.46694
4.7764                 0.4094533        61.53523       0.07668754        -34.8318       0.07668742       -34.83163        0.4094533        61.53528
4.7778                 0.4052644        60.57507       0.07329966        -34.6879       0.07329956       -34.68772        0.4052644        60.57511
4.7792                 0.4009875        59.58487       0.06984157       -34.45575       0.06984147       -34.45555        0.4009875         59.5849
4.7806                 0.3966019        58.56327       0.06631585       -34.10684       0.06631576       -34.10663        0.3966019         58.5633
4.782                  0.3920868        57.50913       0.06272849       -33.60546       0.06272842       -33.60524        0.3920867        57.50916
4.7834                 0.3874214        56.42148       0.05908975       -32.90659       0.05908969       -32.90635        0.3874213        56.42151
4.7848                 0.3825851        55.29959       0.05541503       -31.95321         0.055415       -31.95294         0.382585        55.29962
4.7862                 0.3775578        54.14292       0.05172653       -30.67283       0.05172651       -30.67255        0.3775577        54.14295
4.7876                 0.3723199        52.95112       0.04805525       -28.97322       0.04805525       -28.97291        0.3723198        52.95115
4.789                  0.3668527        51.72401       0.04444398       -26.73773       0.04444401        -26.7374        0.3668526        51.72404
4.7904                 0.3611387        50.46163       0.04095137       -23.82176       0.04095143       -23.82141        0.3611385        50.46167
4.7918                 0.3551612        49.16416       0.03765718       -20.05379       0.03765727       -20.05342        0.3551609        49.16419
4.7932                  0.348905        47.83193       0.03466807        -15.2492       0.03466819       -15.24882        0.3489048        47.83196
4.7946                 0.3423565        46.46545       0.03212158       -9.250589       0.03212173       -9.250222        0.3423562        46.46548
4.796                  0.3355032        45.06534       0.03018258       -2.009136       0.03018277       -2.008807        0.3355029        45.06537
4.7974                 0.3283347        43.63239       0.02902365        6.302224       0.02902386        6.302484        0.3283344        43.63242
4.7988                 0.3208421        42.16745       0.02878471          15.215       0.02878494        15.21517        0.3208418        42.16748
4.8002                 0.3130183        40.67153       0.02952626        24.04314       0.02952651         24.0432         0.313018        40.67156
4.8016                  0.304858        39.14575       0.03120783        32.11972       0.03120808        32.11968        0.3048576        39.14578
4.803                  0.2963577         37.5913        0.0337093         39.0184       0.03370953        39.01829        0.2963573        37.59134
4.8044                 0.2875159        36.00949       0.03687587        44.60472       0.03687609        44.60457        0.2875155        36.00953
4.8058                 0.2783329        34.40175       0.04055608        48.94961       0.04055629        48.94944        0.2783324         34.4018
4.8072                 0.2688109         32.7696       0.04462036        52.21816       0.04462055        52.21797        0.2688104        32.76965
4.8086                 0.2589537        31.11467       0.04896475         54.5946       0.04896493        54.59441        0.2589532        31.11473
4.81                   0.2487674        29.43875       0.05350783        56.24684       0.05350798        56.24666        0.2487668        29.43882
4.8114                 0.2382592        27.74378       0.05818573        57.31522       0.05818587        57.31504        0.2382587        27.74384
4.8128                 0.2274387        26.03187       0.06294769        57.91243       0.06294781        57.91227        0.2274381        26.03194
4.8142                 0.2163165        24.30539       0.06775245        58.12756       0.06775256        58.12741         0.216316        24.30546
4.8156                 0.2049053        22.56701       0.07256574        58.03064       0.07256583        58.03048        0.2049047         22.5671
4.817                  0.1932189        20.81984       0.07735838        57.67686       0.07735847        57.67672        0.1932182        20.81993
4.8184                 0.1812727         19.0675       0.08210509        57.11003       0.08210515         57.1099         0.181272         19.0676
4.8198                 0.1690833        17.31443       0.08678347        56.36518       0.08678354        56.36506        0.1690827        17.31454
4.8212                 0.1566689        15.56614       0.09137351        55.47059       0.09137357        55.47047        0.1566683        15.56627
4.8226                 0.1440485        13.82979       0.09585711        54.44926       0.09585716        54.44915        0.1440478        13.82993
4.824                  0.1312423        12.11497        0.1002177        53.32018        0.1002178        53.32009        0.1312416        12.11512
4.8254                 0.1182717         10.4351        0.1044402        52.09913        0.1044403        52.09904         0.118271        10.43527
4.8268                  0.105159        8.809908        0.1085107        50.79932        0.1085107        50.79924        0.1051583        8.810113
4.8282                0.09192777        7.270038        0.1124164        49.43197        0.1124164        49.43189       0.09192708        7.270276
4.8296                0.07860315         5.86635        0.1161455        48.00669        0.1161455        48.00661       0.07860246        5.866635
4.831                 0.06521259        4.690782        0.1196874        46.53174        0.1196874        46.53168       0.06521191        4.691135
4.8324                 0.0517884        3.929414        0.1230324        45.01437        0.1230324         45.0143       0.05178772        3.929875
4.8338                 0.0383753        4.025759        0.1261716         43.4609        0.1261716        43.46084       0.03837464        4.026414
4.8352                0.02506285         6.35581        0.1290972        41.87695        0.1290972         41.8769       0.02506223        6.356918
4.8366                0.01222656        18.05563        0.1318022        40.26759        0.1318022        40.26754       0.01222607         18.0585
4.838                0.005924841        104.6582        0.1342805        38.63734        0.1342805        38.63729      0.005925437        104.6631
4.8394                 0.0167583        149.1701        0.1365269        36.99036        0.1365269        36.99031       0.01675907        149.1698
4.8408                0.02966536        155.4214        0.1385372        35.33044        0.1385372         35.3304        0.0296661        155.4211
4.8422                0.04270334        156.6028        0.1403078        33.66114        0.1403078         33.6611       0.04270407        156.6025
4.8436                0.05567779        156.2632        0.1418362        31.98576        0.1418362        31.98572        0.0556785        156.2629
4.845                 0.06852504        155.2713        0.1431206        30.30745        0.1431206        30.30741       0.06852574        155.2711
4.8464                0.08120842        153.9412        0.1441601        28.62919        0.1441601        28.62916        0.0812091         153.941
4.8478                0.09370005        152.4137        0.1449545        26.95389        0.1449545        26.95386       0.09370072        152.4136
4.8492                  0.105976        150.7618        0.1455046        25.28437        0.1455046        25.28434        0.1059766        150.7616
4.8506                 0.1180144        149.0268        0.1458118         23.6234        0.1458118        23.62337         0.118015        149.0267
4.852                   0.129795        147.2344        0.1458784        21.97374        0.1458784        21.97372        0.1297956        147.2343
4.8534                 0.1412989        145.4013        0.1457074        20.33818        0.1457074        20.33815        0.1412995        145.4012
4.8548                 0.1525082         143.539        0.1453027        18.71951        0.1453027        18.71948        0.1525088        143.5389
4.8562                  0.163406        141.6556        0.1446688        17.12059        0.1446688        17.12057        0.1634067        141.6555
4.8576                 0.1739768        139.7572         0.143811        15.54439         0.143811        15.54437        0.1739774        139.7572
4.859                  0.1842058        137.8486        0.1427352        13.99396        0.1427352        13.99394        0.1842063        137.8486
4.8604                 0.1940794        135.9335        0.1414483         12.4725        0.1414483        12.47248          0.19408        135.9335
4.8618                 0.2035852         134.015        0.1399576        10.98337        0.1399577        10.98335        0.2035858         134.015
4.8632                 0.2127119        132.0954        0.1382714        9.530104        0.1382714         9.53009        0.2127125        132.0954
4.8646                 0.2214494        130.1772        0.1363985        8.116479        0.1363985        8.116465        0.2214499        130.1772
4.866                  0.2297885         128.262        0.1343483        6.746499        0.1343484        6.746485         0.229789         128.262
4.8674                 0.2377216        126.3517        0.1321313        5.424449        0.1321314        5.424434         0.237722        126.3517
4.8688                 0.2452418        124.4478        0.1297584        4.154917        0.1297584        4.154902        0.2452424        124.4478
4.8702                 0.2523441        122.5518        0.1272411        2.942829        0.1272412        2.942814        0.2523445        122.5518
4.8716                 0.2590239         120.665         0.124592        1.793481         0.124592        1.793466        0.2590245         120.665