! TOUCHSTONE file generated by CST MICROWAVE STUDIO
! Date and time: Sat Nov 30 03:28:48 2024
! Project name: test_tuning.cst
! Parameters = {airCoaxOuterDiameter=3; chamferAngle=45; chamferWidth=16; connectorLength=10; drillingHoleDiameter=4.1; feedLength=60; flareDiameter=130; flareLength=70; gratingDistance=0; gratingGap=1.90274; outletLength=30; polarizerLength=134; probe1Diameter=1.3; probe1Distance=14; probe1Length=12; probe2Diameter=1.3; probe2Distance=0; probe2Length=12; probeLength=12; smaInnerDiameter=1.3; smaOuterDiameter=4.1; transitionCoefficient=1.33; waveguideFeedLength=30; waveguideSide=50; waveguideThickness=3; wireCount=25; wireDiameter=1.17699}
! Header version: 2024
! Port assignment regex: !\s*Touchstone port\s*([0-9]+)\s*=\s*(CST MWS port|CST DES external port|CST DES block port)\s*(.+)\s* \(\"(.*)\"\)(\s*mode\s*([0-9]+))?.*
! Touchstone port assignment:
! Touchstone port 1 = CST MWS port 1 ("Input1")
! Touchstone port 2 = CST MWS port 2 ("Input2")
# GHz S MA R 50
4.6                    0.5519512        99.71034       0.03000639       -87.75531       0.03000655       -87.75554        0.5519519        99.71032
4.6014                  0.545737        98.62998        0.0246992        -109.097       0.02469939       -109.0971        0.5457376        98.62996
4.6028                 0.5392692        97.57065        0.0234134       -136.0508       0.02341359       -136.0507        0.5392699        97.57065
4.6042                 0.5325579         96.5335       0.02660779         -160.82       0.02660795       -160.8198        0.5325585        96.53349
4.6056                 0.5256132        95.51968         0.032895       -178.5235       0.03289511       -178.5233        0.5256138        95.51968
4.607                  0.5184459        94.53043       0.04077603        169.5429       0.04077611        169.5431        0.5184465        94.53043
4.6084                 0.5110673        93.56713       0.04941161        161.1422       0.04941167        161.1424        0.5110678        93.56713
4.6098                 0.5034888         92.6312       0.05839381        154.8368       0.05839386         154.837        0.5034893        92.63119
4.6112                 0.4957227        91.72416       0.06751715        149.8212       0.06751718        149.8213        0.4957232        91.72415
4.6126                 0.4877816        90.84766       0.07666952        145.6395       0.07666953        145.6396        0.4877821        90.84766
4.614                  0.4796786        90.00347        0.0857845        142.0225       0.08578452        142.0226        0.4796791        90.00346
4.6154                 0.4714273        89.19341       0.09481962        138.8035       0.09481961        138.8036        0.4714278        89.19341
4.6168                  0.463042        88.41948        0.1037458        135.8748        0.1037458        135.8749        0.4630425        88.41948
4.6182                 0.4545375        87.68381        0.1125419        133.1641        0.1125419        133.1642        0.4545379        87.68381
4.6196                 0.4459291        86.98863         0.121192        130.6213         0.121192        130.6213        0.4459295        86.98863
4.621                  0.4372328        86.33635        0.1296831        128.2104        0.1296831        128.2105        0.4372331        86.33634
4.6224                 0.4284653        85.72951        0.1380049        125.9056        0.1380048        125.9056        0.4284657        85.72949
4.6238                  0.419644        85.17079        0.1461482        123.6871        0.1461482        123.6871        0.4196444        85.17078
4.6252                  0.410787        84.66301        0.1541056        121.5402        0.1541056        121.5402        0.4107874        84.66301
4.6266                 0.4019132        84.20922        0.1618701        119.4534        0.1618701        119.4535        0.4019136        84.20922
4.628                  0.3930424        83.81256         0.169436        117.4179        0.1694359        117.4179        0.3930427        83.81256
4.6294                 0.3841951        83.47627        0.1767978        115.4264        0.1767977        115.4264        0.3841954        83.47627
4.6308                 0.3753927         83.2038        0.1839507        113.4733        0.1839507        113.4734         0.375393        83.20379
4.6322                 0.3666579        82.99867        0.1908905        111.5541        0.1908905        111.5541        0.3666582        82.99867
4.6336                  0.358014         82.8645        0.1976134        109.6649        0.1976134        109.6649        0.3580143         82.8645
4.635                  0.3494856        82.80493         0.204116        107.8027         0.204116        107.8027        0.3494858        82.80493
4.6364                  0.341098        82.82364        0.2103952         105.965        0.2103952         105.965        0.3410982        82.82364
4.6378                 0.3328779        82.92417        0.2164485        104.1496        0.2164485        104.1496        0.3328781        82.92418
4.6392                 0.3248528           83.11        0.2222735        102.3548        0.2222734        102.3548        0.3248531           83.11
4.6406                 0.3170514        83.38431        0.2278683        100.5791        0.2278683        100.5791        0.3170516        83.38433
4.642                   0.309503        83.74995        0.2332314        98.82131        0.2332313        98.82133        0.3095033        83.74996
4.6434                 0.3022379        84.20926        0.2383615        97.08039        0.2383614         97.0804        0.3022381        84.20928
4.6448                 0.2952869        84.76395        0.2432576        95.35545        0.2432575        95.35546        0.2952871        84.76397
4.6462                 0.2886811        85.41486        0.2479192        93.64576        0.2479191        93.64579        0.2886813        85.41489
4.6476                 0.2824516        86.16193        0.2523459        91.95075        0.2523458        91.95076        0.2824519        86.16197
4.649                  0.2766293        87.00384        0.2565378        90.26986        0.2565378        90.26986        0.2766296        87.00386
4.6504                  0.271244        87.93789        0.2604952        88.60269        0.2604952        88.60269        0.2712442        87.93792
4.6518                 0.2663242        88.95994        0.2642188        86.94887        0.2642187        86.94888        0.2663244        88.95997
4.6532                 0.2618964        90.06415        0.2677093        85.30812        0.2677093        85.30812        0.2618966        90.06419
4.6546                 0.2579844        91.24302         0.270968         83.6802         0.270968        83.68021        0.2579846        91.24305
4.656                  0.2546086        92.48734        0.2739964        82.06494        0.2739963        82.06494        0.2546089        92.48736
4.6574                 0.2517856        93.78631        0.2767961        80.46217         0.276796        80.46217        0.2517859        93.78634
4.6588                 0.2495272        95.12771        0.2793691        78.87179        0.2793691        78.87179        0.2495275        95.12775
4.6602                 0.2478404        96.49821        0.2817178        77.29372        0.2817178        77.29372        0.2478407        96.49825
4.6616                 0.2467264        97.88367        0.2838445        75.72793        0.2838445        75.72793        0.2467267        97.88371
4.663                  0.2461814        99.26958        0.2857521        74.17437        0.2857521        74.17437        0.2461817        99.26961
4.6644                 0.2461955        100.6414        0.2874434        72.63304        0.2874433        72.63304        0.2461958        100.6415
4.6658                 0.2467538        101.9853        0.2889216        71.10394        0.2889216        71.10393        0.2467542        101.9854
4.6672                 0.2478365        103.2881        0.2901902        69.58713        0.2901901        69.58712        0.2478369        103.2881
4.6686                 0.2494193        104.5379        0.2912526        68.08263        0.2912525        68.08262        0.2494197        104.5379
4.67                   0.2514742        105.7243        0.2921127        66.59049        0.2921126        66.59049        0.2514746        105.7243
4.6714                 0.2539703        106.8385        0.2927744        65.11081        0.2927744        65.11079        0.2539706        106.8385
4.6728                 0.2568741        107.8734        0.2932419        63.64363        0.2932418        63.64361        0.2568745        107.8734
4.6742                 0.2601509        108.8237        0.2935194        62.18903        0.2935193        62.18903        0.2601513        108.8237
4.6756                  0.263765        109.6855        0.2936114        60.74712        0.2936113        60.74712        0.2637654        109.6855
4.677                  0.2676804        110.4565        0.2935225          59.318        0.2935224        59.31798        0.2676808        110.4566
4.6784                 0.2718613        111.1359        0.2932573        57.90174        0.2932572        57.90172        0.2718617        111.1359
4.6798                 0.2762727        111.7237        0.2928206        56.49844        0.2928205        56.49844        0.2762731        111.7238
4.6812                 0.2808803        112.2212        0.2922175        55.10823        0.2922174        55.10821        0.2808807        112.2212
4.6826                 0.2856513        112.6302         0.291453        53.73117        0.2914528        53.73116        0.2856517        112.6302
4.684                  0.2905542        112.9533         0.290532        52.36739        0.2905319        52.36737        0.2905546        112.9533
4.6854                 0.2955591        113.1934        0.2894599        51.01696        0.2894598        51.01694        0.2955594        113.1934
4.6868                 0.3006375         113.354        0.2882418           49.68        0.2882417        49.67998        0.3006379         113.354
4.6882                 0.3057628        113.4385         0.286883        48.35658        0.2868829        48.35656        0.3057632        113.4385
4.6896                 0.3109099        113.4507        0.2853889        47.04679        0.2853887        47.04677        0.3109103        113.4507
4.691                  0.3160552        113.3943        0.2837647         45.7507        0.2837646        45.75068        0.3160555        113.3943
4.6924                 0.3211765        113.2731        0.2820159         44.4684        0.2820158        44.46837        0.3211769        113.2731
4.6938                 0.3262535        113.0907        0.2801479        43.19992        0.2801478         43.1999        0.3262539        113.0907
4.6952                 0.3312669        112.8508        0.2781658        41.94533        0.2781657         41.9453        0.3312673        112.8508
4.6966                 0.3361989        112.5569        0.2760751        40.70466        0.2760749        40.70465        0.3361992        112.5569
4.698                  0.3410328        112.2124         0.273881        39.47795        0.2738808        39.47794        0.3410332        112.2124
4.6994                 0.3457534        111.8205        0.2715887        38.26521        0.2715885        38.26518        0.3457537        111.8205
4.7008                 0.3503462        111.3843        0.2692034        37.06642        0.2692032         37.0664        0.3503465        111.3843
4.7022                 0.3547981        110.9068        0.2667302        35.88158        0.2667301        35.88156        0.3547984        110.9068
4.7036                 0.3590969        110.3909        0.2641741        34.71065         0.264174        34.71063        0.3590972        110.3909
4.705                  0.3632312        109.8392          0.26154        33.55358        0.2615398        33.55355        0.3632315        109.8392
4.7064                 0.3671907        109.2543        0.2588327        32.41028        0.2588325        32.41026         0.367191        109.2543
4.7078                 0.3709659        108.6386        0.2560568        31.28067        0.2560566        31.28065        0.3709662        108.6386
4.7092                 0.3745479        107.9944        0.2532169        30.16463        0.2532167        30.16462        0.3745482        107.9944
4.7106                 0.3779289         107.324        0.2503174        29.06203        0.2503172          29.062        0.3779292        107.3239
4.712                  0.3811017        106.6293        0.2473624        27.97269        0.2473622        27.97269        0.3811018        106.6293
4.7134                 0.3840595        105.9125        0.2443562        26.89646         0.244356        26.89644        0.3840597        105.9125
4.7148                 0.3867967        105.1754        0.2413024        25.83309        0.2413022        25.83306        0.3867969        105.1754
4.7162                 0.3893081        104.4199        0.2382049        24.78233        0.2382047        24.78233        0.3893083        104.4199
4.7176                  0.391589        103.6476        0.2350672        23.74396         0.235067        23.74394        0.3915892        103.6476
4.719                  0.3936356        102.8603        0.2318925        22.71767        0.2318924        22.71764        0.3936358        102.8603
4.7204                 0.3954445        102.0595         0.228684        21.70315        0.2286838        21.70313        0.3954447        102.0595
4.7218                  0.397013        101.2469        0.2254445        20.70005        0.2254443        20.70005        0.3970131        101.2469
4.7232                 0.3983388        100.4239        0.2221766          19.708        0.2221764          19.708         0.398339        100.4239
4.7246                 0.3994205        99.59197        0.2188828        18.72658        0.2188826        18.72658        0.3994206        99.59197
4.726                  0.4002568        98.75258        0.2155652        17.75546         0.215565        17.75546        0.4002569        98.75258
4.7274                 0.4008474        97.90712        0.2122258        16.79412        0.2122256        16.79411        0.4008476        97.90715
4.7288                 0.4011923        97.05692        0.2088663        15.84213        0.2088661        15.84211        0.4011924        97.05695
4.7302                  0.401292        96.20332        0.2054882          14.899         0.205488        14.89899        0.4012921        96.20332
4.7316                 0.4011476        95.34765        0.2020926        13.96424        0.2020924        13.96423        0.4011477        95.34768
4.733                  0.4007607        94.49119        0.1986806        13.03733        0.1986804        13.03732        0.4007608        94.49119
4.7344                 0.4001336        93.63524        0.1952529        12.11776        0.1952527        12.11775        0.4001336        93.63524
4.7358                 0.3992688        92.78107          0.19181        11.20498        0.1918098        11.20497        0.3992688        92.78107
4.7372                 0.3981695        91.92997        0.1883523        10.29845        0.1883521        10.29845        0.3981695        91.92997
4.7386                 0.3968394         91.0832        0.1848798        9.397644        0.1848796         9.39764        0.3968394        91.08323
4.74                   0.3952826        90.24206        0.1813924        8.502011        0.1813922        8.502007        0.3952826        90.24206
4.7414                 0.3935039        89.40776        0.1778897        7.611015        0.1778895        7.611012        0.3935039        89.40782
4.7428                 0.3915084        88.58171        0.1743714        6.724132        0.1743712        6.724131        0.3915084        88.58171
4.7442                 0.3893018         87.7651        0.1708366        5.840853        0.1708364        5.840855        0.3893018        87.76513
4.7456                 0.3868903        86.95926        0.1672846        4.960689        0.1672844        4.960691        0.3868903        86.95929
4.747                  0.3842804        86.16554        0.1637143        4.083173        0.1637141        4.083177        0.3842804        86.16557
4.7484                 0.3814794        85.38526        0.1601246        3.207871        0.1601244        3.207876        0.3814794        85.38528
4.7498                 0.3784948        84.61979        0.1565144        2.334387        0.1565142        2.334393        0.3784947        84.61982
4.7512                 0.3753346        83.87045        0.1528822        1.462366         0.152882        1.462373        0.3753346        83.87048
4.7526                 0.3720075        83.13868        0.1492266       0.5915042        0.1492264       0.5915127        0.3720075        83.13874
4.754                  0.3685225         82.4259        0.1455462      -0.2784449         0.145546      -0.2784353        0.3685224        82.42596
4.7554                 0.3648888         81.7335        0.1418394       -1.147662        0.1418392       -1.147652        0.3648888        81.73356
4.7568                 0.3611165        81.06291        0.1381047       -2.016253        0.1381045       -2.016242        0.3611165        81.06296
4.7582                 0.3572159        80.41562        0.1343405        -2.88424        0.1343403       -2.884227        0.3572159        80.41567
4.7596                 0.3531976        79.79304        0.1305452       -3.751545         0.130545       -3.751532        0.3531976        79.79313
4.761                  0.3490729        79.19671        0.1267173       -4.617984        0.1267171       -4.617971        0.3490729        79.19679
4.7624                 0.3448532         78.6281        0.1228553       -5.483246        0.1228551       -5.483233        0.3448532        78.62813
4.7638                 0.3405505         78.0886        0.1189577       -6.346875        0.1189576       -6.346862        0.3405505        78.08866
4.7652                  0.336177        77.57976        0.1150232       -7.208249        0.1150231       -7.208233         0.336177        77.57984
4.7666                 0.3317452          77.103        0.1110506       -8.066549        0.1110505       -8.066534        0.3317452        77.10305
4.768                  0.3272682        76.65971        0.1070386       -8.920728        0.1070385       -8.920716        0.3272681        76.65976
4.7694                  0.322759        76.25124        0.1029861       -9.769472         0.102986       -9.769458         0.322759        76.25132
4.7708                 0.3182312        75.87901       0.09889237       -10.61113       0.09889229       -10.61112        0.3182311        75.87906
4.7722                 0.3136982        75.54413       0.09475655       -11.44366       0.09475646       -11.44365        0.3136982        75.54422
4.7736                  0.309174        75.24787       0.09057805       -12.26453       0.09057797       -12.26452         0.309174        75.24795
4.775                  0.3046725        74.99123       0.08635646       -13.07059       0.08635639       -13.07058        0.3046725        74.99131
4.7764                 0.3002076         74.7751       0.08209158       -13.85794       0.08209151       -13.85793        0.3002076        74.77521
4.7778                 0.2957934        74.60034       0.07778345       -14.62164       0.07778338       -14.62164        0.2957934        74.60042
4.7792                 0.2914438         74.4675       0.07343229       -15.35551       0.07343223       -15.35551        0.2914438        74.46759
4.7806                 0.2871725        74.37695       0.06903868       -16.05159       0.06903861       -16.05159        0.2871725        74.37703
4.782                  0.2829932        74.32888       0.06460348       -16.69961       0.06460342       -16.69961        0.2829932        74.32896
4.7834                 0.2789191        74.32314       0.06012796       -17.28603       0.06012791       -17.28604        0.2789191        74.32322
4.7848                 0.2749631        74.35941       0.05561387       -17.79271       0.05561382       -17.79273        0.2749632        74.35952
4.7862                 0.2711376        74.43704       0.05106359       -18.19481       0.05106354       -18.19483        0.2711377        74.43715
4.7876                 0.2674544        74.55497       0.04648037       -18.45737       0.04648032        -18.4574        0.2674544        74.55507
4.789                  0.2639244        74.71189       0.04186871       -18.52969       0.04186866       -18.52973        0.2639244          74.712
4.7904                 0.2605578        74.90607       0.03723505       -18.33551         0.037235       -18.33556        0.2605579        74.90618
4.7918                 0.2573639        75.13547       0.03258909       -17.75487       0.03258904       -17.75493         0.257364        75.13559
4.7932                 0.2543509        75.39766       0.02794628       -16.58857       0.02794623       -16.58865         0.254351        75.39777
4.7946                 0.2515257        75.68986       0.02333351       -14.48291       0.02333346         -14.483        0.2515258        75.68997
4.796                  0.2488942        76.00896       0.01880259       -10.75614       0.01880253       -10.75625        0.2488943        76.00907
4.7974                 0.2464607        76.35154       0.01446724       -3.965057       0.01446717       -3.965184        0.2464608        76.35166
4.7988                 0.2442281        76.71394       0.01061734        9.154533       0.01061727        9.154437        0.2442283        76.71405
4.8002                 0.2421981         77.0922      0.008045195        34.50638      0.008045116        34.50649        0.2421983        77.09229
4.8016                 0.2403707        77.48223      0.008131074         69.2213      0.008131015        69.22173        0.2403708        77.48234
4.803                  0.2387442        77.87982        0.0108455        93.93557       0.01084547        93.93601        0.2387444        77.87994
4.8044                 0.2373157         78.2807       0.01482857        106.6475       0.01482856        106.6479        0.2373159        78.28082
4.8058                 0.2360808         78.6806       0.01932414        113.2168       0.01932415        113.2171         0.236081         78.6807
4.8072                 0.2350336         79.0753       0.02405504        116.7967       0.02405505        116.7969        0.2350338        79.07541
4.8086                 0.2341668        79.46072       0.02891102         118.782       0.02891104        118.7822         0.234167        79.46084
4.81                   0.2334721          79.833       0.03384081        119.8345       0.03384084        119.8347        0.2334723         79.8331
4.8114                   0.23294        80.18845       0.03881688        120.2987       0.03881691        120.2989        0.2329402        80.18856
4.8128                 0.2325599        80.52372       0.04382248        120.3695       0.04382252        120.3696        0.2325601        80.52384
4.8142                 0.2323206        80.83575        0.0488463        120.1644       0.04884634        120.1646        0.2323208        80.83585
4.8156                 0.2322099        81.12181       0.05387996        119.7586          0.05388        119.7587        0.2322101        81.12191
4.817                  0.2322152        81.37956       0.05891675        119.2019       0.05891679         119.202        0.2322154        81.37966
4.8184                 0.2323236        81.60699       0.06395102        118.5291       0.06395106        118.5292        0.2323239         81.6071
4.8198                 0.2325218        81.80252       0.06897775        117.7648        0.0689778        117.7649        0.2325221        81.80261
4.8212                 0.2327964        81.96487       0.07399236        116.9272       0.07399242        116.9273        0.2327967        81.96496
4.8226                 0.2331339        82.09313       0.07899058        116.0298       0.07899064        116.0299        0.2331342        82.09322
4.824                  0.2335211        82.18674       0.08396831        115.0831       0.08396838        115.0832        0.2335213        82.18683
4.8254                 0.2339447        82.24545       0.08892166        114.0954       0.08892172        114.0954        0.2339449        82.24554
4.8268                 0.2343919        82.26927        0.0938468         113.073       0.09384689         113.073        0.2343922        82.26937
4.8282                 0.2348504        82.25853       0.09874009        112.0211       0.09874017        112.0211        0.2348507        82.25862
4.8296                  0.235308        82.21375        0.1035979         110.944         0.103598        110.9441        0.2353083        82.21383
4.831                  0.2357533        82.13568        0.1084167        109.8454        0.1084168        109.8454        0.2357536        82.13576
4.8324                 0.2361753        82.02526        0.1131931         108.728        0.1131932        108.7281        0.2361756        82.02534
4.8338                 0.2365636        81.88356        0.1179238        107.5945        0.1179238        107.5945        0.2365639        81.88364
4.8352                 0.2369084        81.71188        0.1226053        106.4469        0.1226054         106.447        0.2369087        81.71197
4.8366                 0.2372007        81.51156        0.1272346        105.2872        0.1272347        105.2873        0.2372009        81.51164
4.838                  0.2374318        81.28406        0.1318085        104.1169        0.1318086        104.1169        0.2374321        81.28414
4.8394                 0.2375942        81.03094         0.136324        102.9374        0.1363241        102.9375        0.2375944        81.03104
4.8408                 0.2376805        80.75384        0.1407782        101.7501        0.1407783        101.7501        0.2376807        80.75392
4.8422                 0.2376843        80.45442        0.1451681         100.556        0.1451683         100.556        0.2376845        80.45452
4.8436                 0.2375999        80.13443        0.1494912        99.35609        0.1494913        99.35613        0.2376001        80.13453
4.845                   0.237422        79.79564        0.1537446        98.15135        0.1537447        98.15141        0.2374223        79.79572
4.8464                 0.2371464        79.43986        0.1579259         96.9426        0.1579261        96.94265        0.2371466        79.43994
4.8478                 0.2367691        79.06888        0.1620327        95.73061        0.1620329        95.73063        0.2367693        79.06896
4.8492                 0.2362869        78.68457        0.1660627        94.51606        0.1660628        94.51608        0.2362871        78.68465
4.8506                 0.2356974        78.28877        0.1700136         93.2996        0.1700138        93.29964        0.2356976        78.28885
4.852                  0.2349986        77.88337        0.1738835        92.08186        0.1738836         92.0819        0.2349988        77.88345
4.8534                 0.2341892        77.47021        0.1776703        90.86339        0.1776705        90.86341        0.2341894        77.47031
4.8548                 0.2332685        77.05123        0.1813724         89.6447        0.1813725        89.64473        0.2332687        77.05132
4.8562                 0.2322363         76.6283         0.184988         88.4263        0.1849881        88.42634        0.2322365        76.62838
4.8576                 0.2310931        76.20328        0.1885155        87.20869        0.1885157        87.20872        0.2310932        76.20338
4.859                  0.2298398        75.77813        0.1919537        85.99225        0.1919539        85.99228        0.2298399        75.77821
4.8604                  0.228478        75.35473        0.1953013        84.77744        0.1953014        84.77747        0.2284781        75.35482
4.8618                 0.2270096        74.93499        0.1985571        83.56465        0.1985572        83.56467        0.2270098        74.93509
4.8632                 0.2254374        74.52085        0.2017202        82.35424        0.2017203        82.35426        0.2254376        74.52096
4.8646                 0.2237643        74.11423        0.2047898        81.14657        0.2047899        81.14659        0.2237645        74.11432
4.866                  0.2219939        73.71705        0.2077652        79.94197        0.2077653          79.942        0.2219941        73.71715
4.8674                 0.2201302        73.33127        0.2106458        78.74078         0.210646        78.74081        0.2201304        73.33136
4.8688                 0.2181778        72.95883        0.2134314         77.5433        0.2134315        77.54331        0.2181779        72.95893
4.8702                 0.2161415        72.60165        0.2161215        76.34979        0.2161217        76.34982        0.2161417        72.60176
4.8716                 0.2140268        72.26171        0.2187162        75.16055        0.2187164        75.16057        0.2140269        72.26182