! TOUCHSTONE file generated by CST MICROWAVE STUDIO
! Date and time: Sat Nov 30 03:28:48 2024
! Project name: test_tuning.cst
! Parameters = {airCoaxOuterDiameter=3; chamferAngle=45; chamferWidth=18; connectorLength=10; drillingHoleDiameter=4.1; feedLength=60; flareDiameter=130; flareLength=70; gratingDistance=0; gratingGap=1.90274; outletLength=30; polarizerLength=134; probe1Diameter=1.3; probe1Distance=14; probe1Length=12; probe2Diameter=1.3; probe2Distance=0; probe2Length=12; probeLength=12; smaInnerDiameter=1.3; smaOuterDiameter=4.1; transitionCoefficient=1.33; waveguideFeedLength=30; waveguideSide=50; waveguideThickness=3; wireCount=25; wireDiameter=1.17699}
! Header version: 2024
! Port assignment regex: !\s*Touchstone port\s*([0-9]+)\s*=\s*(CST MWS port|CST DES external port|CST DES block port)\s*(.+)\s* \(\"(.*)\"\)(\s*mode\s*([0-9]+))?.*
! Touchstone port assignment:
! Touchstone port 1 = CST MWS port 1 ("Input1")
! Touchstone port 2 = CST MWS port 2 ("Input2")
# GHz S MA R 50
4.6                     0.642113        133.9048        0.3417875         6.37359        0.3417873        6.373645        0.6421143        133.9047
4.6014                 0.6431315        132.6637        0.3329738        5.176258        0.3329737        5.176315        0.6431328        132.6636
4.6028                  0.643897        131.4405        0.3241937        3.995149        0.3241937        3.995206        0.6438983        131.4403
4.6042                 0.6444208        130.2348        0.3154531        2.830289        0.3154531        2.830345         0.644422        130.2347
4.6056                  0.644714        129.0465        0.3067573         1.68166        0.3067573        1.681716         0.644715        129.0463
4.607                  0.6447876        127.8751        0.2981112       0.5492054        0.2981113       0.5492607        0.6447886        127.8749
4.6084                 0.6446525        126.7202        0.2895192       -0.567172        0.2895192      -0.5671184        0.6446534        126.7201
4.6098                 0.6443193        125.5815         0.280985       -1.667611         0.280985       -1.667558        0.6443202        125.5814
4.6112                 0.6437984        124.4586        0.2725117       -2.752286        0.2725118       -2.752233        0.6437991        124.4585
4.6126                 0.6430995        123.3508        0.2641019       -3.821405         0.264102       -3.821355        0.6431002        123.3507
4.614                  0.6422322        122.2577        0.2557576       -4.875209        0.2557578       -4.875163        0.6422327        122.2576
4.6154                 0.6412053        121.1786        0.2474803       -5.913964        0.2474804        -5.91392        0.6412058        121.1785
4.6168                 0.6400272        120.1131        0.2392707       -6.937949        0.2392708        -6.93791        0.6400277         120.113
4.6182                 0.6387055        119.0604        0.2311291       -7.947455        0.2311292       -7.947416        0.6387058        119.0602
4.6196                 0.6372472        118.0198        0.2230551       -8.942764        0.2230552        -8.94273        0.6372476        118.0197
4.621                  0.6356587        116.9907        0.2150479       -9.924143        0.2150481       -9.924111        0.6356589        116.9906
4.6224                 0.6339452        115.9723        0.2071061       -10.89182        0.2071063       -10.89179        0.6339454        115.9722
4.6238                 0.6321116         114.964        0.1992279       -11.84597        0.1992281       -11.84595        0.6321117        114.9639
4.6252                 0.6301615         113.965        0.1914108       -12.78668         0.191411       -12.78666        0.6301616        113.9649
4.6266                 0.6280981        112.9745        0.1836523       -13.71392        0.1836524       -13.71391        0.6280983        112.9744
4.628                  0.6259235        111.9918         0.175949       -14.62752        0.1759492        -14.6275        0.6259236        111.9917
4.6294                  0.623639        111.0162        0.1682976       -15.52708        0.1682978       -15.52708         0.623639        111.0161
4.6308                 0.6212448        110.0469        0.1606943       -16.41199        0.1606945       -16.41198        0.6212449        110.0468
4.6322                 0.6187409        109.0832        0.1531351       -17.28124        0.1531353       -17.28124         0.618741        109.0831
4.6336                  0.616126        108.1245         0.145616       -18.13345        0.1456162       -18.13346         0.616126        108.1245
4.635                  0.6133981        107.1702        0.1381326       -18.96666        0.1381328       -18.96667        0.6133982        107.1701
4.6364                 0.6105548        106.2196        0.1306808       -19.77819        0.1306809        -19.7782        0.6105548        106.2195
4.6378                 0.6075926        105.2721        0.1232561       -20.56443        0.1232563       -20.56445        0.6075926        105.2721
4.6392                 0.6045078        104.3274        0.1158546       -21.32056        0.1158548       -21.32058        0.6045077        104.3273
4.6406                 0.6012956        103.3848        0.1084723       -22.04009        0.1084725       -22.04012        0.6012956        103.3848
4.642                  0.5979515        102.4441        0.1011057        -22.7143        0.1011058       -22.71433        0.5979515        102.4441
4.6434                   0.59447         101.505       0.09375158       -23.33136       0.09375171       -23.33139        0.5944699        101.5049
4.6448                 0.5908454        100.5671       0.08640747       -23.87504       0.08640758       -23.87508        0.5908454         100.567
4.6462                 0.5870719         99.6303       0.07907175       -24.32267       0.07907185       -24.32271        0.5870718        99.63025
4.6476                 0.5831434        98.69458       0.07174404       -24.64191       0.07174415       -24.64195        0.5831434        98.69451
4.649                  0.5790537        97.75988       0.06442578       -24.78532       0.06442587       -24.78537        0.5790537        97.75982
4.6504                 0.5747967        96.82633       0.05712119       -24.68088       0.05712127       -24.68094        0.5747967        96.82628
4.6518                 0.5703664        95.89411       0.04983911       -24.21445       0.04983918        -24.2145        0.5703663        95.89405
4.6532                 0.5657567        94.96348       0.04259659         -23.195       0.04259666       -23.19505        0.5657567        94.96341
4.6546                  0.560962        94.03484       0.03542671       -21.28033       0.03542678       -21.28038        0.5609619        94.03477
4.656                  0.5559771        93.10867       0.02839776       -17.80251       0.02839782       -17.80257        0.5559771         93.1086
4.6574                 0.5507971        92.18557       0.02166681       -11.31685       0.02166686       -11.31692         0.550797         92.1855
4.6588                 0.5454174        91.26624       0.01565235        1.585175        0.0156524        1.585071        0.5454173        91.26617
4.6602                 0.5398345         90.3515       0.01157484        27.64302       0.01157488        27.64282        0.5398343        90.35142
4.6616                 0.5340449        89.44228       0.01171654        64.29865       0.01171655        64.29838        0.5340447        89.44219
4.663                  0.5280463        88.53962       0.01599122        89.48546       0.01599121        89.48523        0.5280462        88.53954
4.6644                 0.5218371        87.64473       0.02213645        101.8462       0.02213644         101.846         0.521837        87.64464
4.6658                 0.5154166         86.7589       0.02899598        108.0142       0.02899596         108.014        0.5154163        86.75882
4.6672                 0.5087847        85.88359       0.03617114         111.249       0.03617112        111.2489        0.5087844        85.88351
4.6686                 0.5019427        85.02037       0.04350814        112.9355       0.04350811        112.9353        0.5019423        85.02029
4.67                   0.4948927          84.171       0.05093639        113.7178       0.05093636        113.7176        0.4948923         84.1709
4.6714                 0.4876381        83.33734       0.05841802         113.928       0.05841799        113.9279        0.4876377        83.33724
4.6728                 0.4801834        82.52144       0.06592972        113.7526       0.06592969        113.7525        0.4801829        82.52133
4.6742                 0.4725342        81.72553       0.07345527        113.3039       0.07345524        113.3037        0.4725337        81.72542
4.6756                 0.4646975        80.95198       0.08098217         112.653       0.08098212        112.6529         0.464697        80.95187
4.677                  0.4566817        80.20341       0.08849987        111.8477       0.08849981        111.8476         0.456681        80.20329
4.6784                 0.4484963        79.48256       0.09599901        110.9208       0.09599893        110.9207        0.4484956        79.48242
4.6798                 0.4401526         78.7924        0.1034708        109.8958        0.1034707        109.8957        0.4401519        78.79228
4.6812                 0.4316632        78.13615        0.1109068        108.7899        0.1109067        108.7898        0.4316623        78.13604
4.6826                  0.423042        77.51723        0.1182987        107.6162        0.1182986        107.6161        0.4230411         77.5171
4.684                   0.414305        76.93924        0.1256384        106.3846        0.1256383        106.3845        0.4143041        76.93912
4.6854                 0.4054694        76.40608        0.1329178        105.1032        0.1329176         105.103        0.4054684        76.40598
4.6868                 0.3965543         75.9219        0.1401286         103.778        0.1401285        103.7779        0.3965532        75.92178
4.6882                 0.3875805        75.49103        0.1472629        102.4143        0.1472627        102.4142        0.3875793         75.4909
4.6896                 0.3785705        75.11804        0.1543124        101.0163        0.1543123        101.0162        0.3785692        75.11793
4.691                  0.3695487        74.80779        0.1612692        99.58748         0.161269         99.5874        0.3695474        74.80769
4.6924                 0.3605415        74.56529        0.1681251        98.13088        0.1681249        98.13079        0.3605401        74.56519
4.6938                  0.351577        74.39573        0.1748721          96.649        0.1748719        96.64892        0.3515756        74.39563
4.6952                 0.3426855        74.30439        0.1815025        95.14412        0.1815023        95.14404         0.342684         74.3043
4.6966                  0.333899        74.29668        0.1880083        93.61817         0.188008        93.61808        0.3338974        74.29659
4.698                  0.3252514         74.3779        0.1943818        92.07287        0.1943815        92.07277        0.3252498        74.37783
4.6994                 0.3167787        74.55328        0.2006156        90.50972        0.2006153        90.50965         0.316777        74.55323
4.7008                 0.3085184        74.82769        0.2067022        88.93014         0.206702        88.93006        0.3085167        74.82766
4.7022                 0.3005097        75.20559        0.2126346        87.33534        0.2126343        87.33528        0.3005079        75.20557
4.7036                 0.2927931        75.69071        0.2184057        85.72649        0.2184054        85.72642        0.2927913        75.69071
4.705                  0.2854099        76.28589        0.2240088         84.1046        0.2240085        84.10453        0.2854081        76.28592
4.7064                 0.2784023        76.99277        0.2294374        82.47059        0.2294371        82.47054        0.2784004        76.99281
4.7078                  0.271812        77.81142        0.2346853        80.82539         0.234685        80.82533        0.2718101        77.81151
4.7092                   0.26568         78.7402        0.2397465        79.16976        0.2397462         79.1697        0.2656782        78.74033
4.7106                 0.2600459        79.77534        0.2446155        77.50448        0.2446151         77.5044        0.2600441        79.77548
4.712                  0.2549463        80.91078        0.2492867        75.83018        0.2492864        75.83016        0.2549445        80.91092
4.7134                 0.2504143        82.13788        0.2537552        74.14765        0.2537549         74.1476        0.2504126        82.13811
4.7148                 0.2464783        83.44562        0.2580163        72.45737        0.2580159        72.45729        0.2464766        83.44588
4.7162                 0.2431604        84.82049        0.2620654        70.75992         0.262065        70.75989        0.2431588        84.82077
4.7176                 0.2404763        86.24687        0.2658986        69.05589        0.2658982        69.05584        0.2404748        86.24721
4.719                  0.2384338        87.70742        0.2695121        67.34573        0.2695116        67.34565        0.2384324        87.70775
4.7204                 0.2370325        89.18351        0.2729023        65.62987        0.2729019        65.62984        0.2370313         89.1839
4.7218                 0.2362638         90.6562        0.2760664        63.90882         0.276066        63.90879        0.2362627        90.65664
4.7232                 0.2361107        92.10673        0.2790014        62.18299         0.279001        62.18296        0.2361096        92.10714
4.7246                 0.2365484        93.51711         0.281705        60.45269        0.2817046        60.45266        0.2365476        93.51756
4.726                  0.2375454        94.87101        0.2841751        58.71829        0.2841747        58.71827        0.2375447        94.87146
4.7274                 0.2390641        96.15408        0.2864099        56.98019        0.2864094        56.98017        0.2390636        96.15453
4.7288                 0.2410623        97.35425        0.2884079        55.23867        0.2884075        55.23867        0.2410619        97.35469
4.7302                 0.2434941        98.46199        0.2901681        53.49404        0.2901677        53.49401        0.2434938        98.46245
4.7316                 0.2463116        99.47022        0.2916896        51.74654        0.2916892        51.74654        0.2463114        99.47071
4.733                  0.2494655        100.3744        0.2929721        49.99647        0.2929716        49.99647        0.2494654        100.3748
4.7344                 0.2529066         101.172        0.2940151        48.24406        0.2940146        48.24406        0.2529067        101.1724
4.7358                 0.2565866        101.8625        0.2948189        46.48955        0.2948185        46.48955        0.2565868         101.863
4.7372                 0.2604582        102.4471        0.2953839         44.7331        0.2953835        44.73313        0.2604585        102.4475
4.7386                 0.2644763        102.9281        0.2957108        42.97501        0.2957104        42.97501        0.2644767        102.9285
4.74                   0.2685981        103.3091        0.2958006        41.21541        0.2958001        41.21541        0.2685986        103.3095
4.7414                 0.2727834        103.5944        0.2956544        39.45448         0.295654         39.4545         0.272784        103.5948
4.7428                 0.2769948        103.7887        0.2952739         37.6924        0.2952735        37.69242        0.2769954         103.789
4.7442                 0.2811973        103.8972        0.2946609        35.92937        0.2946605        35.92937        0.2811981        103.8975
4.7456                 0.2853593        103.9254        0.2938174        34.16544         0.293817        34.16544        0.2853601        103.9257
4.747                  0.2894515        103.8788        0.2927457        32.40084        0.2927452        32.40086        0.2894524        103.8791
4.7484                 0.2934474        103.7628        0.2914483        30.63567        0.2914479         30.6357        0.2934483        103.7631
4.7498                  0.297323         103.583        0.2899281        28.87006        0.2899278        28.87008         0.297324        103.5833
4.7512                 0.3010571        103.3446        0.2881882        27.10413        0.2881879        27.10416        0.3010581        103.3449
4.7526                 0.3046303        103.0528        0.2862318        25.33799        0.2862314        25.33802        0.3046314         103.053
4.754                   0.308026        102.7124        0.2840624        23.57174         0.284062        23.57178        0.3080271        102.7127
4.7554                 0.3112294        102.3284        0.2816838        21.80549        0.2816834        21.80552        0.3112305        102.3286
4.7568                 0.3142278        101.9052        0.2790998        20.03932        0.2790995        20.03935        0.3142289        101.9054
4.7582                 0.3170103        101.4472        0.2763147        18.27332        0.2763144        18.27336        0.3170114        101.4473
4.7596                  0.319568        100.9585        0.2733329        16.50756        0.2733326         16.5076        0.3195691        100.9586
4.761                  0.3218936         100.443        0.2701588        14.74211        0.2701585        14.74216        0.3218947        100.4432
4.7624                 0.3239815        99.90468        0.2667973        12.97704         0.266797        12.97709        0.3239826        99.90483
4.7638                 0.3258277          99.347        0.2632532         11.2124         0.263253        11.21245        0.3258288        99.34715
4.7652                 0.3274296         98.7735        0.2595318        9.448227        0.2595316        9.448278        0.3274307        98.77359
4.7666                  0.328786        98.18735        0.2556384        7.684552        0.2556381        7.684605        0.3287871         98.1875
4.768                  0.3298972        97.59183        0.2515783        5.921393        0.2515781        5.921449        0.3298982        97.59193
4.7694                 0.3307647        96.98993        0.2473572        4.158757         0.247357        4.158815        0.3307657        96.99002
4.7708                 0.3313913        96.38448         0.242981        2.396629        0.2429808        2.396689        0.3313923         96.3846
4.7722                 0.3317811         95.7784        0.2384555       0.6349793        0.2384553       0.6350408         0.331782        95.77848
4.7736                 0.3319391        95.17428        0.2337867       -1.126245        0.2337866       -1.126181          0.33194        95.17438
4.775                  0.3318716        94.57474        0.2289809        -2.88712        0.2289808       -2.887054        0.3318725        94.57481
4.7764                  0.331586        93.98223        0.2240444       -4.647749        0.2240442       -4.647682        0.3315869        93.98234
4.7778                 0.3310905        93.39924        0.2189834       -6.408271        0.2189833       -6.408203        0.3310914        93.39931
4.7792                 0.3303946        92.82796        0.2138046       -8.168862        0.2138045       -8.168791        0.3303954        92.82804
4.7806                 0.3295084        92.27062        0.2085144       -9.929735        0.2085143       -9.929661        0.3295092        92.27072
4.782                   0.328443        91.72941        0.2031195       -11.69116        0.2031194       -11.69109        0.3284438        91.72945
4.7834                 0.3272104        91.20624        0.1976265       -13.45346        0.1976265       -13.45339        0.3272111        91.20628
4.7848                 0.3258233        90.70307        0.1920423       -15.21704        0.1920422       -15.21696         0.325824        90.70312
4.7862                  0.324295        90.22162        0.1863735       -16.98236        0.1863735       -16.98228        0.3242957        90.22167
4.7876                 0.3226398        89.76366        0.1806271       -18.74999         0.180627       -18.74991        0.3226404        89.76371
4.789                  0.3208721        89.33071        0.1748096       -20.52061        0.1748096       -20.52053        0.3208727        89.33076
4.7904                 0.3190072        88.92409        0.1689281       -22.29501        0.1689281       -22.29492        0.3190078        88.92417
4.7918                 0.3170606        88.54514        0.1629891       -24.07414        0.1629892       -24.07406        0.3170612        88.54519
4.7932                 0.3150484        88.19488        0.1569996       -25.85915        0.1569997       -25.85906        0.3150489        88.19493
4.7946                 0.3129866        87.87416        0.1509663       -27.65137        0.1509663       -27.65128        0.3129872        87.87419
4.796                  0.3108918        87.58366        0.1448958       -29.45242        0.1448958       -29.45233        0.3108923         87.5837
4.7974                 0.3087803        87.32385        0.1387948       -31.26422        0.1387948       -31.26413        0.3087808        87.32392
4.7988                 0.3066685        87.09495        0.1326699       -33.08906          0.13267       -33.08898        0.3066689        87.09499
4.8002                 0.3045725        86.89685        0.1265276       -34.92975        0.1265277       -34.92966         0.304573         86.8969
4.8016                 0.3025084        86.72928        0.1203746       -36.78963        0.1203747       -36.78954        0.3025089        86.72933
4.803                  0.3004916        86.59163        0.1142171        -38.6728        0.1142172       -38.67271         0.300492        86.59168
4.8044                  0.298537        86.48298        0.1080617       -40.58428        0.1080618       -40.58419        0.2985374        86.48304
4.8058                 0.2966588        86.40214        0.1019147       -42.53031        0.1019148       -42.53021        0.2966592        86.40221
4.8072                 0.2948706        86.34764       0.09578259       -44.51861       0.09578271       -44.51851         0.294871        86.34769
4.8086                 0.2931845        86.31764       0.08967188         -46.559       0.08967198       -46.55891        0.2931849        86.31771
4.81                   0.2916122        86.31009       0.08358915       -48.66396       0.08358928       -48.66385        0.2916126        86.31014
4.8114                 0.2901636        86.32259       0.07754133       -50.84967       0.07754145       -50.84957         0.290164        86.32266
4.8128                 0.2888476        86.35256       0.07153565       -53.13744       0.07153578       -53.13733         0.288848        86.35263
4.8142                 0.2876717        86.39715       0.06558005       -55.55576       0.06558018       -55.55565         0.287672        86.39721
4.8156                 0.2866417        86.45333       0.05968347        -58.1436        0.0596836        -58.1435        0.2866421        86.45338
4.817                  0.2857619         86.5179       0.05385647        -60.9556        0.0538566       -60.95548        0.2857623        86.51796
4.8184                 0.2850352        86.58758        0.0481123       -64.07028       0.04811243       -64.07016        0.2850357        86.58763
4.8198                 0.2844628        86.65897       0.04246857        -67.6044        0.0424687       -67.60426        0.2844633        86.65903
4.8212                 0.2840441        86.72871       0.03695051       -71.73761       0.03695064       -71.73748        0.2840446        86.72876
4.8226                 0.2837771        86.79343       0.03159706       -76.75792       0.03159718       -76.75774        0.2837776        86.79348
4.824                  0.2836584        86.84986       0.02647317       -83.14585       0.02647329       -83.14563        0.2836588        86.84991
4.8254                 0.2836827        86.89478       0.02169611       -91.72797       0.02169621        -91.7277        0.2836832        86.89483
4.8268                 0.2838438        86.92522       0.01749138       -103.9003       0.01749146       -103.8999        0.2838442        86.92527
4.8282                  0.284134        86.93834       0.01429359       -121.5727       0.01429365       -121.5722        0.2841343        86.93839
4.8296                 0.2845444        86.93154       0.01278692        -145.204       0.01278693       -145.2034        0.2845448        86.93157
4.831                  0.2850653        86.90246       0.01346031       -169.9415       0.01346027        -169.941        0.2850658        86.90249
4.8324                  0.285686        86.84901       0.01596581        170.4586       0.01596575         170.459        0.2856865        86.84903
4.8338                 0.2863951        86.76938       0.01955043        156.8634       0.01955035        156.8637        0.2863955        86.76941
4.8352                 0.2871805        86.66202       0.02367731        147.4414       0.02367723        147.4416         0.287181        86.66204
4.8366                 0.2880298         86.5257       0.02806373        140.5935       0.02806365        140.5936        0.2880302        86.52572
4.838                  0.2889302        86.35943        0.0325663        135.3433       0.03256621        135.3434        0.2889306        86.35946
4.8394                 0.2898687        86.16251       0.03710873        131.1245       0.03710864        131.1246        0.2898691        86.16253
4.8408                 0.2908322        85.93448       0.04164781        127.6018       0.04164773        127.6019        0.2908326        85.93449
4.8422                 0.2918079        85.67514       0.04615752        124.5684       0.04615744        124.5685        0.2918082        85.67513
4.8436                 0.2927827        85.38448       0.05062136        121.8914       0.05062129        121.8915        0.2927831        85.38447
4.845                  0.2937442         85.0627       0.05502847        119.4824       0.05502841        119.4825        0.2937445        85.06271
4.8464                   0.29468        84.71025       0.05937144        117.2804       0.05937138        117.2804        0.2946803        84.71025
4.8478                 0.2955783        84.32766       0.06364513        115.2421       0.06364507        115.2421        0.2955786        84.32766
4.8492                 0.2964277        83.91566       0.06784591         113.336       0.06784585        113.3361        0.2964279        83.91566
4.8506                 0.2972172        83.47512       0.07197122        111.5389       0.07197117        111.5389        0.2972174        83.47509
4.852                  0.2979366        83.00694       0.07601934        109.8328       0.07601929        109.8329        0.2979368        83.00693
4.8534                 0.2985761        82.51222       0.07998907        108.2042       0.07998903        108.2042        0.2985763        82.51221
4.8548                 0.2991267        81.99209       0.08387974        106.6421       0.08387969        106.6422        0.2991268        81.99209
4.8562                 0.2995797        81.44774       0.08769099        105.1382       0.08769096        105.1383        0.2995798        81.44774
4.8576                 0.2999276        80.88044       0.09142279        103.6855       0.09142277        103.6856        0.2999277        80.88044
4.859                  0.3001631         80.2915       0.09507537        102.2784       0.09507536        102.2784        0.3001632        80.29149
4.8604                 0.3002799        79.68225       0.09864918        100.9123       0.09864916        100.9123        0.3002799        79.68223
4.8618                 0.3002722        79.05403        0.1021448         99.5833        0.1021448        99.58331        0.3002722        79.05403
4.8632                 0.3001348        78.40825        0.1055631        98.28817        0.1055631        98.28821        0.3001348        78.40825
4.8646                 0.2998636        77.74631        0.1089049        97.02423        0.1089049        97.02426        0.2998635        77.74631
4.866                  0.2994546        77.06958        0.1121713         95.7891        0.1121713        95.78911        0.2994545        77.06958
4.8674                 0.2989049        76.37949        0.1153635        94.58074        0.1153635        94.58077        0.2989048        76.37949
4.8688                  0.298212        75.67742        0.1184828        93.39742        0.1184828        93.39744        0.2982119        75.67744
4.8702                 0.2973742        74.96478        0.1215305        92.23758        0.1215304        92.23758         0.297374         74.9648
4.8716                 0.2963901        74.24294        0.1245081        91.09984        0.1245081        91.09984        0.2963899        74.24297