! TOUCHSTONE file generated by CST MICROWAVE STUDIO
! Date and time: Sat Nov 30 03:28:50 2024
! Project name: test_tuning.cst
! Parameters = {airCoaxOuterDiameter=3; chamferAngle=45; chamferWidth=34; connectorLength=10; drillingHoleDiameter=4.1; feedLength=60; flareDiameter=130; flareLength=70; gratingDistance=0; gratingGap=1.90274; outletLength=30; polarizerLength=134; probe1Diameter=1.3; probe1Distance=14; probe1Length=12; probe2Diameter=1.3; probe2Distance=0; probe2Length=12; probeLength=12; smaInnerDiameter=1.3; smaOuterDiameter=4.1; transitionCoefficient=1.33; waveguideFeedLength=30; waveguideSide=50; waveguideThickness=3; wireCount=25; wireDiameter=1.17699}
! Header version: 2024
! Port assignment regex: !\s*Touchstone port\s*([0-9]+)\s*=\s*(CST MWS port|CST DES external port|CST DES block port)\s*(.+)\s* \(\"(.*)\"\)(\s*mode\s*([0-9]+))?.*
! Touchstone port assignment:
! Touchstone port 1 = CST MWS port 1 ("Input1")
! Touchstone port 2 = CST MWS port 2 ("Input2")
# GHz S MA R 50
4.6                   0.08467763       -100.8915        0.7684644        87.85706        0.7684642        87.85709       0.08468034       -100.8911
4.6014                0.08737015       -104.4637        0.7689522        87.13012         0.768952        87.13016       0.08737286       -104.4633
4.6028                0.09027269       -107.8798        0.7694499        86.42111        0.7694498        86.42114        0.0902754       -107.8793
4.6042                0.09335601       -111.1504        0.7700033         85.7278        0.7700034        85.72784       0.09335873       -111.1499
4.6056                0.09659062       -114.2862        0.7706501        85.04734        0.7706503        85.04739       0.09659332       -114.2857
4.607                 0.09994695       -117.2969        0.7714186        84.37645        0.7714189        84.37648       0.09994962       -117.2964
4.6084                 0.1033958       -120.1915        0.7723264        83.71148        0.7723268        83.71152        0.1033984       -120.1909
4.6098                 0.1069086       -122.9772        0.7733799        83.04875        0.7733804        83.04878        0.1069112       -122.9767
4.6112                  0.110458       -125.6601        0.7745744         82.3846        0.7745748        82.38461        0.1104605       -125.6596
4.6126                 0.1140181       -128.2448        0.7758941        81.71563        0.7758948        81.71565        0.1140206       -128.2443
4.614                  0.1175653       -130.7344        0.7773143        81.03894         0.777315        81.03894        0.1175678       -130.7339
4.6154                 0.1210785       -133.1311        0.7788018        80.35211        0.7788024         80.3521        0.1210808       -133.1306
4.6168                 0.1245394        -135.436        0.7803174        79.65343        0.7803181        79.65342        0.1245418       -135.4354
4.6182                 0.1279336       -137.6494        0.7818182        78.94195        0.7818188        78.94193        0.1279359       -137.6489
4.6196                 0.1312501       -139.7712        0.7832593        78.21743        0.7832599        78.21741        0.1312523       -139.7707
4.621                  0.1344821       -141.8011        0.7845969        77.48041        0.7845974        77.48039        0.1344843       -141.8006
4.6224                  0.137627       -143.7387        0.7857898        76.73216        0.7857903         76.7321        0.1376291       -143.7382
4.6238                 0.1406861       -145.5839         0.786802        75.97449        0.7868023        75.97445        0.1406882       -145.5833
4.6252                 0.1436651       -147.3369         0.787604        75.20984        0.7876041        75.20978        0.1436671       -147.3364
4.6266                  0.146573        -148.999        0.7881744        74.44094        0.7881745        74.44089         0.146575       -148.9984
4.628                  0.1494222       -150.5718        0.7885008        73.67091        0.7885007        73.67087        0.1494242       -150.5713
4.6294                 0.1522277       -152.0584        0.7885804        72.90289        0.7885801        72.90283        0.1522297       -152.0579
4.6308                 0.1550063       -153.4628        0.7884203        72.14002          0.78842        72.13998        0.1550082       -153.4622
4.6322                 0.1577755       -154.7899        0.7880368         71.3853        0.7880362        71.38526        0.1577774       -154.7894
4.6336                 0.1605531       -156.0462        0.7874545         70.6414         0.787454        70.64138         0.160555       -156.0456
4.635                  0.1633556       -157.2386        0.7867063        69.91058        0.7867056        69.91055        0.1633575       -157.2381
4.6364                 0.1661978       -158.3754        0.7858302        69.19451        0.7858295         69.1945        0.1661997       -158.3748
4.6378                 0.1690916       -159.4649        0.7848687        68.49434        0.7848682        68.49433        0.1690934       -159.4643
4.6392                  0.172045       -160.5159        0.7838667        67.81047        0.7838661        67.81047        0.1720469       -160.5154
4.6406                 0.1750625       -161.5373         0.782869        67.14262        0.7828684        67.14262        0.1750644       -161.5368
4.642                  0.1781438       -162.5374        0.7819183        66.48983        0.7819177        66.48986        0.1781457       -162.5369
4.6434                 0.1812841       -163.5239        0.7810533        65.85049        0.7810528        65.85052         0.181286       -163.5234
4.6448                 0.1844747       -164.5034        0.7803068        65.22243        0.7803065        65.22246        0.1844766        -164.503
4.6462                 0.1877026       -165.4816        0.7797044        64.60299        0.7797043        64.60302        0.1877044       -165.4812
4.6476                 0.1909517       -166.4628         0.779263        63.98918        0.7792629        63.98922        0.1909535       -166.4623
4.649                  0.1942034       -167.4496          0.77899        63.37787        0.7789899        63.37791        0.1942052       -167.4492
4.6504                 0.1974375       -168.4437        0.7788834        62.76588        0.7788835        62.76592        0.1974392       -168.4433
4.6518                  0.200633       -169.4451         0.778932        62.15018        0.7789322        62.15022        0.2006347       -169.4447
4.6532                 0.2037694       -170.4527         0.779116        61.52803        0.7791163        61.52805        0.2037709       -170.4523
4.6546                  0.206827       -171.4642        0.7794081         60.8971        0.7794086        60.89713        0.2068285       -171.4639
4.656                  0.2097887       -172.4766        0.7797754        60.25563        0.7797758        60.25565        0.2097901       -172.4762
4.6574                   0.21264       -173.4859        0.7801804        59.60244         0.780181        59.60245        0.2126413       -173.4856
4.6588                 0.2153699       -174.4878        0.7805836          58.937        0.7805842          58.937        0.2153711       -174.4875
4.6602                 0.2179714       -175.4777        0.7809458        58.25944        0.7809462        58.25944        0.2179726       -175.4774
4.6616                 0.2204419        -176.451        0.7812284        57.57055         0.781229        57.57054         0.220443       -176.4506
4.663                  0.2227832        -177.403        0.7813976        56.87172        0.7813981         56.8717        0.2227841       -177.4027
4.6644                 0.2250014       -178.3298        0.7814242        56.16479        0.7814246        56.16477        0.2250022       -178.3294
4.6658                 0.2271067       -179.2276        0.7812856        55.45207        0.7812859        55.45204        0.2271075       -179.2273
4.6672                 0.2291132        179.9062        0.7809671        54.73616        0.7809675        54.73613         0.229114        179.9066
4.6686                  0.231038        179.0738        0.7804622        54.01982        0.7804623        54.01978        0.2310387        179.0742
4.67                   0.2329003         178.276        0.7797728        53.30584        0.7797728         53.3058        0.2329009        178.2764
4.6714                  0.234721        177.5127        0.7789094        52.59697        0.7789093        52.59692        0.2347215        177.5131
4.6728                  0.236521        176.7828        0.7778903        51.89569        0.7778903        51.89565        0.2365216        176.7833
4.6742                 0.2383211        176.0841         0.776741        51.20419        0.7767409        51.20415        0.2383216        176.0846
4.6756                   0.24014        175.4135        0.7754931        50.52421        0.7754929        50.52416        0.2401405         175.414
4.677                  0.2419941        174.7669        0.7741821        49.85694        0.7741818         49.8569        0.2419946        174.7674
4.6784                 0.2438962        174.1398        0.7728466        49.20303        0.7728462          49.203        0.2438968        174.1404
4.6798                 0.2458553        173.5272        0.7715258        48.56247        0.7715254        48.56245        0.2458559        173.5277
4.6812                 0.2478757        172.9238        0.7702583        47.93462        0.7702579         47.9346        0.2478763        172.9244
4.6826                  0.249957        172.3247        0.7690798        47.31827        0.7690792        47.31825        0.2499577        172.3252
4.684                  0.2520944         171.725         0.768021        46.71163        0.7680206         46.7116        0.2520951        171.7255
4.6854                 0.2542784        171.1206        0.7671072        46.11243        0.7671068        46.11242        0.2542793        171.1211
4.6868                 0.2564962        170.5081        0.7663564        45.51807        0.7663559        45.51807        0.2564971        170.5086
4.6882                 0.2587315        169.8848        0.7657782        44.92573        0.7657777        44.92573        0.2587324        169.8854
4.6896                 0.2609659        169.2494        0.7653744        44.33247         0.765374        44.33247         0.260967        169.2499
4.691                    0.26318        168.6011        0.7651381        43.73545        0.7651376        43.73545        0.2631811        168.6016
4.6924                 0.2653538        167.9404        0.7650546        43.13199        0.7650541          43.132         0.265355         167.941
4.6938                 0.2674684        167.2688         0.765102        42.51977        0.7651016        42.51977        0.2674696        167.2693
4.6952                 0.2695066        166.5883        0.7652529        41.89689        0.7652525        41.89689        0.2695078        166.5888
4.6966                 0.2714535        165.9019        0.7654752        41.26198        0.7654748        41.26198        0.2714547        165.9024
4.698                  0.2732979         165.213        0.7657342        40.61424        0.7657339        40.61424        0.2732992        165.2134
4.6994                 0.2750323        164.5253        0.7659943        39.95346        0.7659939        39.95347        0.2750335        164.5258
4.7008                 0.2766534        163.8429        0.7662205        39.28005          0.76622        39.28006        0.2766547        163.8433
4.7022                 0.2781627        163.1696        0.7663804        38.59495          0.76638        38.59495         0.278164          163.17
4.7036                 0.2795658        162.5091        0.7664459         37.8996        0.7664456         37.8996         0.279567        162.5095
4.705                  0.2808727        161.8649        0.7663939        37.19586        0.7663936        37.19586        0.2808739        161.8653
4.7064                 0.2820973        161.2397        0.7662081         36.4859        0.7662078         36.4859        0.2820985        161.2401
4.7078                 0.2832565        160.6356        0.7658792         35.7721        0.7658788         35.7721        0.2832577         160.636
4.7092                   0.28437        160.0539        0.7654054        35.05692        0.7654051        35.05692        0.2843712        160.0543
4.7106                 0.2854588        159.4952        0.7647929        34.34276        0.7647924        34.34279          0.28546        159.4956
4.712                  0.2865448        158.9589        0.7640546        33.63192        0.7640541        33.63192        0.2865458        158.9593
4.7134                 0.2876491        158.4436        0.7632104        32.92636          0.76321        32.92636        0.2876502         158.444
4.7148                 0.2887918         157.947         0.762286         32.2277        0.7622856         32.2277        0.2887928        157.9474
4.7162                 0.2899903        157.4662        0.7613113        31.53707        0.7613108         31.5371        0.2899913        157.4666
4.7176                 0.2912588        156.9974         0.760319         30.8551        0.7603185        30.85513        0.2912598        156.9978
4.719                   0.292608        156.5366        0.7593434        30.18186         0.759343        30.18189        0.2926089         156.537
4.7204                 0.2940436        156.0793        0.7584184        29.51679         0.758418        29.51682        0.2940446        156.0796
4.7218                 0.2955672        155.6211        0.7575755        28.85878        0.7575751        28.85881        0.2955681        155.6214
4.7232                 0.2971756        155.1576        0.7568428        28.20619        0.7568425        28.20621        0.2971766         155.158
4.7246                 0.2988612        154.6849        0.7562432        27.55692        0.7562429        27.55695        0.2988621        154.6853
4.726                  0.3006125        154.1997         0.755793        26.90847        0.7557928         26.9085        0.3006135           154.2
4.7274                 0.3024148         153.699        0.7555015        26.25817        0.7555012         26.2582        0.3024158        153.6994
4.7288                 0.3042507        153.1809        0.7553699         25.6031        0.7553697        25.60312        0.3042517        153.1812
4.7302                 0.3061014         152.644        0.7553919        24.94043        0.7553917        24.94048        0.3061025        152.6444
4.7316                 0.3079475         152.088         0.755553        24.26753        0.7555529        24.26756        0.3079485        152.0884
4.733                  0.3097695        151.5131        0.7558317        23.58192        0.7558317        23.58194        0.3097705        151.5135
4.7344                 0.3115493        150.9203        0.7562005        22.88155        0.7562005        22.88159        0.3115503        150.9207
4.7358                 0.3132706        150.3112         0.756627         22.1649        0.7566269        22.16493        0.3132717        150.3116
4.7372                 0.3149199        149.6878        0.7570747         21.4309        0.7570747        21.43093         0.314921        149.6881
4.7386                 0.3164864        149.0525        0.7575058         20.6791        0.7575058        20.67913        0.3164875        149.0528
4.74                    0.317963        148.4077        0.7578817        19.90962        0.7578817        19.90965         0.317964         148.408
4.7414                 0.3193457        147.7562        0.7581655        19.12315        0.7581655        19.12318        0.3193468        147.7564
4.7428                 0.3206345        147.1001        0.7583226        18.32091        0.7583226        18.32094        0.3206356        147.1004
4.7442                 0.3218321        146.4419        0.7583231        17.50457         0.758323        17.50461        0.3218331        146.4422
4.7456                 0.3229441        145.7833        0.7581418        16.67623        0.7581417        16.67626        0.3229451        145.7836
4.747                  0.3239786        145.1256        0.7577603        15.83823        0.7577603        15.83826        0.3239796        145.1259
4.7484                 0.3249448        144.4698        0.7571666        14.99315        0.7571667        14.99318        0.3249457          144.47
4.7498                 0.3258531        143.8161        0.7563562        14.14365        0.7563562        14.14368         0.325854        143.8163
4.7512                 0.3267135        143.1641        0.7553314        13.29236        0.7553315        13.29239        0.3267144        143.1644
4.7526                 0.3275354        142.5132        0.7541018        12.44182        0.7541018        12.44185        0.3275363        142.5134
4.754                  0.3283266        141.8618        0.7526828        11.59432        0.7526829        11.59436        0.3283274        141.8621
4.7554                 0.3290924        141.2084        0.7510957        10.75188        0.7510957        10.75192        0.3290931        141.2086
4.7568                 0.3298354        140.5509        0.7493658        9.916114        0.7493659        9.916154        0.3298361        140.5511
4.7582                 0.3305551        139.8871        0.7475219        9.088203         0.747522        9.088245        0.3305557        139.8873
4.7596                 0.3312473        139.2148        0.7455945        8.268853        0.7455946        8.268897        0.3312478         139.215
4.761                  0.3319046        138.5319        0.7436144        7.458274        0.7436146        7.458317         0.331905        138.5321
4.7624                  0.332516        137.8364        0.7416112        6.656179        0.7416115        6.656223        0.3325164        137.8366
4.7638                 0.3330679         137.127        0.7396126        5.861821        0.7396129        5.861863        0.3330683        137.1272
4.7652                 0.3335442        136.4027        0.7376421         5.07403        0.7376425        5.074071        0.3335445        136.4029
4.7666                  0.333927        135.6629        0.7357191        4.291295        0.7357195        4.291334        0.3339273        135.6631
4.768                  0.3341976        134.9078        0.7338571        3.511846        0.7338576        3.511882        0.3341978         134.908
4.7694                  0.334337        134.1383        0.7320642        2.733753        0.7320648        2.733786        0.3343372        134.1385
4.7708                 0.3343271        133.3558         0.730342        1.955035        0.7303426        1.955064        0.3343271         133.356
4.7722                  0.334151        132.5624        0.7286863        1.173771         0.728687        1.173796         0.334151        132.5626
4.7736                 0.3337945        131.7606        0.7270875       0.3882031        0.7270882       0.3882238        0.3337944        131.7608
4.775                  0.3332462        130.9535        0.7255312      -0.4031685        0.7255319      -0.4031525        0.3332462        130.9537
4.7764                 0.3324984        130.1447        0.7239989       -1.201504        0.7239996       -1.201493        0.3324983        130.1449
4.7778                 0.3315473        129.3378        0.7224699       -2.007562        0.7224706       -2.007556        0.3315472         129.338
4.7792                 0.3303935        128.5368        0.7209217       -2.821664        0.7209223       -2.821663        0.3303933         128.537
4.7806                 0.3290418        127.7456        0.7193318       -3.643673        0.7193325       -3.643677        0.3290415        127.7458
4.782                  0.3275014        126.9679        0.7176793       -4.473005        0.7176799       -4.473013        0.3275011        126.9681
4.7834                 0.3257856        126.2074        0.7159453       -5.308656         0.715946       -5.308668        0.3257853        126.2076
4.7848                 0.3239112        125.4672        0.7141149       -6.149256        0.7141156       -6.149271        0.3239108        125.4674
4.7862                  0.321898        124.7499        0.7121778       -6.993135        0.7121784       -6.993153        0.3218976        124.7502
4.7876                 0.3197682        124.0577        0.7101288       -7.838407        0.7101293       -7.838428        0.3197677        124.0579
4.789                  0.3175451        123.3918        0.7079685       -8.683068        0.7079689        -8.68309        0.3175447        123.3921
4.7904                 0.3152528        122.7529        0.7057035       -9.525096        0.7057038       -9.525122        0.3152524        122.7531
4.7918                 0.3129146        122.1406        0.7033461       -10.36256        0.7033466       -10.36259        0.3129141        122.1408
4.7932                 0.3105524        121.5539        0.7009145       -11.19372        0.7009148       -11.19374        0.3105518        121.5541
4.7946                 0.3081855        120.9909         0.698431       -12.01712        0.6984313       -12.01714        0.3081849        120.9912
4.796                    0.30583        120.4491        0.6959223       -12.83169        0.6959226       -12.83172        0.3058295        120.4494
4.7974                 0.3034982        119.9255        0.6934176       -13.63682        0.6934179       -13.63685        0.3034976        119.9257
4.7988                 0.3011975        119.4164        0.6909476       -14.43239        0.6909478       -14.43242        0.3011969        119.4166
4.8002                 0.2989309         118.918        0.6885432       -15.21882        0.6885434       -15.21885        0.2989303        118.9183
4.8016                 0.2966964        118.4266        0.6862338        -15.9971         0.686234       -15.99713        0.2966958        118.4269
4.803                  0.2944875        117.9385        0.6840464        -16.7687        0.6840466       -16.76873         0.294487        117.9387
4.8044                 0.2922936        117.4502        0.6820038        -17.5356         0.682004       -17.53563         0.292293        117.4505
4.8058                 0.2901003        116.9591        0.6801239       -18.30016        0.6801241       -18.30019        0.2900997        116.9594
4.8072                 0.2878909        116.4629        0.6784185       -19.06505        0.6784187       -19.06508        0.2878903        116.4633
4.8086                 0.2856466        115.9605        0.6768932       -19.83314        0.6768933       -19.83317         0.285646        115.9608
4.81                   0.2833481        115.4513        0.6755465       -20.60735        0.6755466       -20.60738        0.2833475        115.4516
4.8114                 0.2809762        114.9358        0.6743703       -21.39054        0.6743704       -21.39057        0.2809756        114.9361
4.8128                 0.2785132        114.4154        0.6733503       -22.18537        0.6733503        -22.1854        0.2785126        114.4158
4.8142                 0.2759435        113.8923        0.6724663        -22.9942        0.6724663       -22.99424         0.275943        113.8927
4.8156                 0.2732546        113.3695        0.6716936       -23.81898        0.6716935       -23.81901        0.2732541        113.3699
4.817                  0.2704376        112.8507         0.671004       -24.66114         0.671004       -24.66118        0.2704372        112.8511
4.8184                 0.2674878        112.3399        0.6703672       -25.52161        0.6703671       -25.52164        0.2674874        112.3403
4.8198                 0.2644048        111.8416        0.6697519       -26.40072        0.6697518       -26.40075        0.2644044         111.842
4.8212                 0.2611927        111.3604         0.669128       -27.29823        0.6691278       -27.29826        0.2611923        111.3608
4.8226                 0.2578595        110.9009        0.6684669       -28.21338        0.6684667       -28.21341        0.2578592        110.9013
4.824                  0.2544175        110.4674        0.6677441        -29.1449        0.6677438       -29.14493        0.2544172        110.4678
4.8254                 0.2508817        110.0638         0.666939       -30.09111        0.6669387       -30.09113        0.2508815        110.0642
4.8268                 0.2472699        109.6933        0.6660369          -31.05        0.6660365       -31.05002        0.2472697        109.6936
4.8282                 0.2436013        109.3584        0.6650289       -32.01936        0.6650285       -32.01938        0.2436012        109.3588
4.8296                 0.2398956        109.0609        0.6639128       -32.99685        0.6639125       -32.99686        0.2398955        109.0613
4.831                   0.236172        108.8014        0.6626928       -33.98013        0.6626925       -33.98014        0.2361718        108.8017
4.8324                 0.2324477        108.5795        0.6613797       -34.96701        0.6613793       -34.96702        0.2324476        108.5799
4.8338                 0.2287377         108.394        0.6599897       -35.95554        0.6599894       -35.95554        0.2287375        108.3944
4.8352                 0.2250531        108.2428        0.6585449       -36.94409        0.6585446       -36.94408         0.225053        108.2432
4.8366                  0.221401        108.1231         0.657071       -37.93148        0.6570707       -37.93147        0.2214009        108.1235
4.838                  0.2177835        108.0317        0.6555967       -38.91705        0.6555965       -38.91704        0.2177834        108.0321
4.8394                 0.2141979        107.9652        0.6541527        -39.9007        0.6541525       -39.90069        0.2141978        107.9655
4.8408                 0.2106366        107.9203        0.6527697        -40.8829        0.6527694        -40.8829        0.2106365        107.9206
4.8422                 0.2070875        107.8943        0.6514771       -41.86476         0.651477       -41.86475        0.2070874        107.8947
4.8436                 0.2035349        107.8856        0.6503021       -42.84792         0.650302       -42.84791        0.2035348        107.8859
4.845                  0.1999601        107.8935        0.6492676       -43.83454        0.6492676       -43.83452          0.19996        107.8938
4.8464                 0.1963428         107.919        0.6483919        -44.8272        0.6483918       -44.82719        0.1963426        107.9193
4.8478                 0.1926624        107.9649         0.647687       -45.82883         0.647687       -45.82881        0.1926622        107.9652
4.8492                 0.1888991         108.036        0.6471587       -46.84254        0.6471588       -46.84252        0.1888989        108.0363
4.8506                 0.1850359        108.1394        0.6468059       -47.87152        0.6468061        -47.8715        0.1850356        108.1397
4.852                  0.1810593        108.2844        0.6466211        -48.9189        0.6466213       -48.91889         0.181059        108.2847
4.8534                 0.1769611        108.4826        0.6465901        -49.9876        0.6465903       -49.98758        0.1769607        108.4829
4.8548                 0.1727391         108.748        0.6466933       -51.08021        0.6466934        -51.0802        0.1727388        108.7483
4.8562                 0.1683987        109.0968         0.646906       -52.19894        0.6469062       -52.19894        0.1683983        109.0971
4.8576                 0.1639531        109.5473        0.6472005       -53.34545        0.6472007       -53.34546        0.1639527        109.5476
4.859                  0.1594243        110.1195        0.6475465       -54.52089        0.6475468       -54.52089        0.1594238        110.1199
4.8604                 0.1548432        110.8353        0.6479131        -55.7258        0.6479133        -55.7258        0.1548428        110.8357
4.8618                 0.1502502        111.7172        0.6482699       -56.96016        0.6482699       -56.96016        0.1502498        111.7175
4.8632                 0.1456943         112.788        0.6485884        -58.2234        0.6485885       -58.22342        0.1456939        112.7884
4.8646                 0.1412333        114.0699        0.6488439       -59.51449        0.6488439       -59.51451        0.1412329        114.0703
4.866                  0.1369326        115.5829        0.6490155       -60.83197        0.6490157       -60.83199        0.1369322        115.5834
4.8674                 0.1328638        117.3435        0.6490887       -62.17407        0.6490886       -62.17409        0.1328634         117.344
4.8688                  0.129103        119.3626        0.6490539       -63.53882         0.649054       -63.53884        0.1291026        119.3631
4.8702                 0.1257283        121.6433        0.6489089       -64.92419        0.6489089        -64.9242         0.125728        121.6438
4.8716                  0.122817        124.1793        0.6486577       -66.32814        0.6486577       -66.32815        0.1228168        124.1799