! TOUCHSTONE file generated by CST MICROWAVE STUDIO
! Date and time: Sun Dec  1 17:26:33 2024
! Project name: test_tuning.cst
! Parameters = {airCoaxOuterDiameter=3; chamferAngle=45; chamferWidth=12; connectorLength=10; drillingHoleDiameter=4.1; feedLength=60; flareDiameter=130; flareLength=70; gratingDistance=0; gratingGap=1.90274; outletLength=30; polarizerLength=134; probe1Diameter=1.3; probe1Distance=14; probe1Length=12; probe2Diameter=1.3; probe2Distance=0; probe2Length=12; probeLength=12; smaInnerDiameter=1.3; smaOuterDiameter=4.1; transitionCoefficient=1.33; waveguideFeedLength=30; waveguideSide=50; waveguideThickness=3; wireCount=25; wireDiameter=1.17699}
! Header version: 2024
! Port assignment regex: !\s*Touchstone port\s*([0-9]+)\s*=\s*(CST MWS port|CST DES external port|CST DES block port)\s*(.+)\s* \(\"(.*)\"\)(\s*mode\s*([0-9]+))?.*
! Touchstone port assignment:
! Touchstone port 1 = CST MWS port 1 ("Input1")
! Touchstone port 2 = CST MWS port 2 ("Input2")
# GHz S MA R 50
4.6                    0.3320649        125.1031        0.2811493        55.13087        0.2811501         55.1309        0.3320635        125.1028
4.6014                 0.3368397        124.3535        0.2785115        54.05677        0.2785124        54.05678        0.3368383        124.3533
4.6028                 0.3413861        123.5865        0.2757643        52.99775        0.2757651        52.99776        0.3413847        123.5862
4.6042                 0.3457024        122.8043        0.2729113        51.95429        0.2729122        51.95429        0.3457009        122.8041
4.6056                 0.3497873        122.0094        0.2699568        50.92687        0.2699576        50.92687        0.3497858        122.0092
4.607                  0.3536404        121.2039        0.2669045        49.91602        0.2669052        49.91601        0.3536389        121.2036
4.6084                 0.3572619        120.3896        0.2637585        48.92232        0.2637592        48.92231        0.3572604        120.3894
4.6098                 0.3606525        119.5684        0.2605227        47.94641        0.2605234        47.94639        0.3606511        119.5682
4.6112                  0.363814        118.7419        0.2572012        46.98896        0.2572019        46.98894        0.3638125        118.7417
4.6126                 0.3667479        117.9118        0.2537979        46.05072        0.2537986        46.05069        0.3667465        117.9116
4.614                  0.3694572        117.0793        0.2503169        45.13249        0.2503176        45.13246        0.3694558        117.0791
4.6154                 0.3719447         116.246        0.2467624        44.23515        0.2467631         44.2351        0.3719433        116.2458
4.6168                  0.374214         115.413        0.2431385        43.35961        0.2431392        43.35956        0.3742125        115.4128
4.6182                 0.3762689        114.5815        0.2394496         42.5069        0.2394502        42.50685        0.3762675        114.5813
4.6196                  0.378114        113.7525        0.2356998        41.67813        0.2357004        41.67807        0.3781126        113.7524
4.621                  0.3797541        112.9272        0.2318937        40.87447        0.2318943         40.8744        0.3797527        112.9271
4.6224                 0.3811943        112.1065        0.2280359        40.09719        0.2280365        40.09711        0.3811929        112.1064
4.6238                 0.3824402        111.2912         0.224131        39.34764        0.2241315        39.34757        0.3824388        111.2911
4.6252                 0.3834977        110.4822        0.2201839        38.62733        0.2201844        38.62725        0.3834964        110.4821
4.6266                  0.384373        109.6802        0.2161997         37.9378        0.2162001        37.93771        0.3843717        109.6801
4.628                  0.3850726        108.8859        0.2121834        37.28075        0.2121838        37.28066        0.3850713        108.8858
4.6294                 0.3856032           108.1        0.2081404        36.65799        0.2081408        36.65789        0.3856019        108.0999
4.6308                 0.3859717        107.3231        0.2040765        36.07142        0.2040769        36.07131        0.3859704         107.323
4.6322                 0.3861854        106.5557        0.1999974         35.5231        0.1999977        35.52299        0.3861841        106.5556
4.6336                 0.3862515        105.7982        0.1959091        35.01521        0.1959094        35.01509        0.3862502        105.7981
4.635                  0.3861775        105.0511        0.1918181        34.55004        0.1918183        34.54992        0.3861763         105.051
4.6364                  0.385971        104.3147        0.1877309        34.13001        0.1877311        34.12989        0.3859697        104.3146
4.6378                 0.3856397        103.5894        0.1836545        33.75769        0.1836547        33.75756        0.3856384        103.5893
4.6392                 0.3851912        102.8754        0.1795962        33.43573        0.1795963         33.4356          0.38519        102.8753
4.6406                 0.3846333        102.1729        0.1755634        33.16692        0.1755636        33.16679         0.384632        102.1728
4.642                  0.3839737        101.4819        0.1715643        32.95413        0.1715644          32.954        0.3839724        101.4819
4.6434                   0.38322        100.8027         0.167607        32.80032         0.167607        32.80019        0.3832188        100.8026
4.6448                 0.3823798        100.1351        0.1637002        32.70848        0.1637003        32.70835        0.3823785        100.1351
4.6462                 0.3814604        99.47919         0.159853        32.68164         0.159853         32.6815        0.3814592        99.47913
4.6476                 0.3804694         98.8348        0.1560748        32.72277        0.1560748        32.72263        0.3804682        98.83473
4.649                  0.3794137        98.20175        0.1523754        32.83479        0.1523755        32.83466        0.3794124        98.20168
4.6504                 0.3783001        97.57981         0.148765        33.02049         0.148765        33.02035        0.3782989        97.57977
4.6518                 0.3771354        96.96872         0.145254        33.28238        0.1452539        33.28225        0.3771341        96.96866
4.6532                 0.3759258         96.3681        0.1418531        33.62273         0.141853        33.62261        0.3759246        96.36805
4.6546                 0.3746775        95.77754        0.1385733        34.04335        0.1385732        34.04323        0.3746762        95.77749
4.656                   0.373396        95.19658        0.1354257        34.54553        0.1354256        34.54541        0.3733948        95.19655
4.6574                 0.3720868        94.62473        0.1324215         35.1299        0.1324214        35.12979        0.3720855         94.6247
4.6588                 0.3707546        94.06137        0.1295716        35.79633        0.1295715        35.79623        0.3707533        94.06134
4.6602                  0.369404        93.50591        0.1268869        36.54375        0.1268868        36.54365        0.3694028        93.50589
4.6616                 0.3680392         92.9577        0.1243779        37.37002        0.1243778        37.36993        0.3680378        92.95767
4.663                  0.3666636        92.41601        0.1220544         38.2719        0.1220542        38.27182        0.3666623        92.41599
4.6644                 0.3652803         91.8801        0.1199254        39.24486        0.1199252         39.2448         0.365279         91.8801
4.6658                 0.3638921        91.34922        0.1179988        40.28312        0.1179987        40.28306        0.3638908        91.34922
4.6672                 0.3625011        90.82257        0.1162817        41.37958        0.1162815        41.37953        0.3624998        90.82256
4.6686                 0.3611089        90.29929        0.1147791        42.52592        0.1147789        42.52588        0.3611076         90.2993
4.67                   0.3597167        89.77859        0.1134949         43.7127        0.1134947        43.71266        0.3597154        89.77861
4.6714                 0.3583252         89.2596        0.1124307        44.92951        0.1124306        44.92949        0.3583239        89.25962
4.6728                 0.3569344        88.74147        0.1115866        46.16527        0.1115865        46.16525        0.3569331        88.74148
4.6742                  0.355544        88.22335        0.1109605        47.40841        0.1109603        47.40841        0.3555427        88.22339
4.6756                 0.3541533        87.70441         0.110548        48.64727        0.1105479        48.64727         0.354152        87.70445
4.677                   0.352761        87.18382        0.1103433        49.87035        0.1103431        49.87036        0.3527596        87.18386
4.6784                 0.3513653        86.66075        0.1103382        51.06663         0.110338        51.06665         0.351364        86.66079
4.6798                 0.3499642        86.13443        0.1105232        52.22586         0.110523        52.22587        0.3499629        86.13448
4.6812                 0.3485552        85.60408         0.110887        53.33876        0.1108869        53.33878        0.3485538        85.60415
4.6826                 0.3471352        85.06901        0.1114173        54.39723        0.1114172        54.39726        0.3471339        85.06908
4.684                  0.3457011        84.52854        0.1121007        55.39441        0.1121006        55.39443        0.3456998         84.5286
4.6854                 0.3442494        83.98198        0.1129231        56.32478         0.112923        56.32482         0.344248        83.98207
4.6868                 0.3427762        83.42877        0.1138697        57.18413        0.1138697        57.18416        0.3427749        83.42888
4.6882                 0.3412775         82.8684        0.1149258         57.9695        0.1149258        57.96953        0.3412762         82.8685
4.6896                 0.3397488        82.30031        0.1160764        58.67913        0.1160763        58.67916        0.3397476        82.30042
4.691                  0.3381859         81.7241        0.1173066        59.31231        0.1173066        59.31232        0.3381846        81.72423
4.6924                  0.336584        81.13939        0.1186021        59.86925         0.118602        59.86928        0.3365828        81.13951
4.6938                 0.3349384        80.54585        0.1199486        60.35103        0.1199485        60.35104        0.3349372        80.54598
4.6952                 0.3332443        79.94323        0.1213326        60.75934        0.1213325        60.75936        0.3332431        79.94335
4.6966                 0.3314969        79.33131        0.1227411        61.09648        0.1227411        61.09651        0.3314957        79.33145
4.698                  0.3296911        78.70995        0.1241618        61.36518        0.1241617        61.36519        0.3296899         78.7101
4.6994                 0.3278223         78.0791        0.1255829        61.56847        0.1255829        61.56849        0.3278211        78.07926
4.7008                 0.3258855        77.43872        0.1269936        61.70971        0.1269936        61.70972        0.3258843        77.43888
4.7022                 0.3238761        76.78886        0.1283835        61.79236        0.1283836        61.79237         0.323875        76.78902
4.7036                 0.3217893        76.12961        0.1297432        61.82005        0.1297432        61.82005        0.3217882        76.12979
4.705                  0.3196208        75.46115        0.1310637        61.79648        0.1310637        61.79648        0.3196197        75.46133
4.7064                 0.3173661        74.78369        0.1323368        61.72535        0.1323368        61.72533         0.317365         74.7839
4.7078                 0.3150211        74.09754        0.1335551        61.61035        0.1335551        61.61034        0.3150201        74.09774
4.7092                 0.3125819        73.40302        0.1347118        61.45518        0.1347118        61.45516         0.312581        73.40322
4.7106                 0.3100448        72.70053        0.1358006        61.26345        0.1358006        61.26345        0.3100439        72.70074
4.712                  0.3074062        71.99055        0.1368159        61.03883        0.1368159        61.03883        0.3074053        71.99078
4.7134                 0.3046629        71.27356        0.1377529        60.78473        0.1377529        60.78471         0.304662        71.27379
4.7148                 0.3018121        70.55018        0.1386072        60.50472        0.1386071         60.5047        0.3018112        70.55042
4.7162                 0.2988509        69.82104        0.1393748        60.20213        0.1393748         60.2021        0.2988501        69.82128
4.7176                 0.2957772        69.08679        0.1400528        59.88031        0.1400528        59.88028        0.2957765        69.08703
4.719                   0.292589        68.34824        0.1406383        59.54256        0.1406383        59.54253        0.2925882        68.34851
4.7204                 0.2892844        67.60619        0.1411294         59.1921        0.1411294        59.19208        0.2892836        67.60643
4.7218                 0.2858622        66.86152        0.1415244        58.83209        0.1415243        58.83209        0.2858615        66.86179
4.7232                 0.2823213        66.11519        0.1418222        58.46573        0.1418222         58.4657        0.2823206         66.1154
4.7246                 0.2786612        65.36819        0.1420226         58.0961        0.1420225        58.09607        0.2786606        65.36845
4.726                  0.2748815        64.62163        0.1421254         57.7263        0.1421253        57.72627        0.2748809         64.6219
4.7274                 0.2709824        63.87675        0.1421313        57.35935        0.1421312        57.35932        0.2709818        63.87701
4.7288                 0.2669642        63.13473        0.1420414        56.99838        0.1420413        56.99835        0.2669637        63.13499
4.7302                  0.262828        62.39694        0.1418573        56.64637        0.1418572        56.64634        0.2628274         62.3972
4.7316                 0.2585747        61.66484        0.1415814         56.3064        0.1415813        56.30637        0.2585743        61.66511
4.733                  0.2542062        60.93996        0.1412162        55.98149        0.1412161        55.98146        0.2542058        60.94023
4.7344                 0.2497244        60.22404        0.1407653        55.67474        0.1407652        55.67471         0.249724         60.2243
4.7358                 0.2451318        59.51884        0.1402323        55.38914        0.1402322        55.38911        0.2451313        59.51907
4.7372                 0.2404311        58.82628        0.1396219        55.12776        0.1396218        55.12773        0.2404307        58.82655
4.7386                 0.2356255        58.14849        0.1389389        54.89363        0.1389388         54.8936        0.2356251        58.14876
4.74                   0.2307188        57.48773        0.1381891        54.68973         0.138189        54.68973        0.2307184        57.48802
4.7414                 0.2257149        56.84651        0.1373786        54.51913        0.1373785        54.51913        0.2257146        56.84678
4.7428                 0.2206185        56.22751        0.1365142        54.38476        0.1365141        54.38476        0.2206182        56.22778
4.7442                 0.2154343        55.63361        0.1356033        54.28951        0.1356032         54.2895        0.2154341        55.63391
4.7456                  0.210168        55.06808        0.1346539        54.23615        0.1346538        54.23612        0.2101678        55.06841
4.747                  0.2048254        54.53448        0.1336746        54.22733        0.1336745        54.22733        0.2048251        54.53475
4.7484                 0.1994129        54.03658        0.1326746        54.26563        0.1326744        54.26563        0.1994126        54.03687
4.7498                 0.1939374        53.57871        0.1316635        54.35338        0.1316634        54.35338        0.1939372        53.57901
4.7512                 0.1884067        53.16556        0.1306517        54.49261        0.1306515        54.49261        0.1884064        53.16586
4.7526                 0.1828287         52.8024        0.1296499        54.68505        0.1296497        54.68507        0.1828285         52.8027
4.754                  0.1772124        52.49497        0.1286693        54.93213        0.1286692        54.93213        0.1772122        52.49528
4.7554                 0.1715673        52.24975        0.1277216        55.23475        0.1277215        55.23475        0.1715672        52.25005
4.7568                  0.165904        52.07387        0.1268187        55.59335        0.1268186        55.59338        0.1659038        52.07418
4.7582                 0.1602337        51.97533        0.1259729        56.00779        0.1259728        56.00782        0.1602335        51.97563
4.7596                 0.1545688        51.96309        0.1251965        56.47726        0.1251964        56.47728        0.1545687        51.96342
4.761                   0.148923        52.04706        0.1245017        57.00019        0.1245016        57.00024        0.1489228        52.04739
4.7624                  0.143311        52.23831        0.1239009        57.57437        0.1239008        57.57443        0.1433108        52.23865
4.7638                 0.1377492        52.54916        0.1234059         58.1967        0.1234058        58.19673         0.137749        52.54949
4.7652                 0.1322559        52.99322        0.1230282        58.86323        0.1230281        58.86325        0.1322557        52.99356
4.7666                 0.1268511        53.58548        0.1227787        59.56925        0.1227786        59.56927        0.1268509        53.58583
4.768                  0.1215572        54.34228        0.1226674        60.30924        0.1226674         60.3093         0.121557        54.34266
4.7694                  0.116399        55.28123        0.1227036        61.07699        0.1227035        61.07705        0.1163989        55.28161
4.7708                 0.1114045        56.42087        0.1228951        61.86566         0.122895        61.86569        0.1114043        56.42126
4.7722                 0.1066042         57.7803        0.1232488        62.66786        0.1232487        62.66792        0.1066041        57.78071
4.7736                 0.1020324        59.37831        0.1237699        63.47585        0.1237699         63.4759        0.1020323        59.37873
4.775                 0.09772648        61.23226        0.1244624        64.28176        0.1244624        64.28181       0.09772639        61.23271
4.7764                0.09372698        63.35639        0.1253287         65.0776        0.1253286        65.07765        0.0937269        63.35685
4.7778                0.09007705        65.75969        0.1263695        65.85556        0.1263694        65.85561         0.090077        65.76017
4.7792                0.08682143        68.44326        0.1275841        66.60811        0.1275841        66.60816       0.08682141        68.44377
4.7806                 0.0840048        71.39754        0.1289704        67.32823        0.1289703        67.32831        0.0840048        71.39807
4.782                 0.08166948        74.59975        0.1305247        68.00944        0.1305247        68.00949       0.08166953         74.6003
4.7834                0.07985272        78.01229        0.1322422         68.6459        0.1322422        68.64595       0.07985281        78.01286
4.7848                0.07858358        81.58279        0.1341168        69.23258        0.1341168        69.23264       0.07858371        81.58338
4.7862                0.07788003        85.24645        0.1361416        69.76521        0.1361416        69.76526       0.07788022        85.24703
4.7876                 0.0777469        88.93056        0.1383084        70.24032        0.1383084        70.24037       0.07774714        88.93117
4.789                 0.07817496        92.56077        0.1406087        70.65524        0.1406087        70.65527       0.07817526        92.56138
4.7904                0.07914158        96.06754        0.1430332        71.00802        0.1430332        71.00807       0.07914191         96.0681
4.7918                0.08061261        99.39158        0.1455722        71.29746        0.1455722        71.29749         0.080613        99.39212
4.7932                0.08254537        102.4875        0.1482157        71.52293        0.1482157        71.52298       0.08254582        102.4881
4.7946                 0.0848918        105.3251        0.1509534        71.68448        0.1509535         71.6845       0.08489231        105.3256
4.796                 0.08760161        107.8881        0.1537752        71.78253        0.1537753        71.78256       0.08760215        107.8886
4.7974                0.09062471        110.1725        0.1566707        71.81802        0.1566707        71.81806       0.09062529        110.1729
4.7988                 0.0939131        112.1834        0.1596296        71.79221        0.1596296        71.79227       0.09391374        112.1838
4.8002                0.09742214        113.9327        0.1626419        71.70671        0.1626419        71.70673        0.0974228        113.9331
4.8016                 0.1011111        115.4363        0.1656976        71.56325        0.1656976        71.56328        0.1011118        115.4366
4.803                  0.1049432        116.7123        0.1687871        71.36384        0.1687871        71.36387         0.104944        116.7126
4.8044                 0.1088861        117.7798        0.1719009        71.11057        0.1719009        71.11061        0.1088868        117.7801
4.8058                 0.1129108        118.6574        0.1750299        70.80566        0.1750299        70.80569        0.1129116        118.6578
4.8072                 0.1169923        119.3634        0.1781653        70.45136        0.1781653        70.45139        0.1169931        119.3637
4.8086                 0.1211082        119.9146        0.1812985        70.04996        0.1812985        70.04998        0.1211091        119.9149
4.81                   0.1252393        120.3266        0.1844214        69.60372        0.1844214        69.60374        0.1252402        120.3269
4.8114                 0.1293686        120.6136         0.187526        69.11494        0.1875261        69.11494        0.1293695        120.6138
4.8128                 0.1334812        120.7884         0.190605        68.58581         0.190605        68.58584        0.1334821        120.7886
4.8142                 0.1375642        120.8627        0.1936511        68.01856        0.1936511        68.01859        0.1375651        120.8629
4.8156                 0.1416062        120.8467        0.1966573        67.41533        0.1966574        67.41534        0.1416072        120.8469
4.817                  0.1455973        120.7498        0.1996173        66.77816        0.1996173        66.77817        0.1455982          120.75
4.8184                 0.1495286        120.5804        0.2025248        66.10908        0.2025248         66.1091        0.1495296        120.5805
4.8198                 0.1533926        120.3457        0.2053738        65.41003        0.2053739        65.41005        0.1533936        120.3458
4.8212                 0.1571826        120.0525        0.2081589        64.68289         0.208159        64.68289        0.1571836        120.0526
4.8226                 0.1608927        119.7067        0.2108749        63.92943        0.2108749        63.92945        0.1608937        119.7069
4.824                  0.1645179        119.3137        0.2135166        63.15142        0.2135166        63.15142        0.1645189        119.3138
4.8254                 0.1680537        118.8782        0.2160795        62.35049        0.2160795         62.3505        0.1680547        118.8783
4.8268                 0.1714964        118.4045        0.2185591        61.52824        0.2185592        61.52826        0.1714974        118.4046
4.8282                 0.1748426        117.8965        0.2209516        60.68624        0.2209516        60.68625        0.1748436        117.8966
4.8296                 0.1780897        117.3578         0.223253        59.82591         0.223253        59.82593        0.1780907        117.3578
4.831                  0.1812354        116.7913        0.2254598        58.94871        0.2254598        58.94872        0.1812364        116.7914
4.8324                 0.1842778        116.2001        0.2275688        58.05595        0.2275688        58.05597        0.1842787        116.2002
4.8338                 0.1872154        115.5867        0.2295771        57.14896        0.2295771        57.14897        0.1872163        115.5868
4.8352                  0.190047        114.9534         0.231482        56.22897         0.231482        56.22899         0.190048        114.9535
4.8366                  0.192772        114.3024         0.233281        55.29721         0.233281        55.29722         0.192773        114.3025
4.838                  0.1953898        113.6357        0.2349719        54.35482        0.2349719        54.35484        0.1953907        113.6357
4.8394                 0.1979002        112.9549        0.2365529        53.40292        0.2365529        53.40294        0.1979011        112.9549
4.8408                 0.2003033        112.2618        0.2380223        52.44259        0.2380223         52.4426        0.2003042        112.2618
4.8422                 0.2025994        111.5577        0.2393786        51.47486        0.2393787        51.47487        0.2026003        111.5578
4.8436                  0.204789        110.8442        0.2406208        50.50074        0.2406208        50.50076        0.2047899        110.8442
4.845                  0.2068729        110.1223        0.2417478        49.52122        0.2417478        49.52123        0.2068737        110.1223
4.8464                  0.208852        109.3932         0.242759        48.53722         0.242759        48.53723        0.2088528        109.3932
4.8478                 0.2107274         108.658        0.2436539        47.54966        0.2436539        47.54968        0.2107282         108.658
4.8492                 0.2125006        107.9175        0.2444324        46.55944        0.2444324        46.55945        0.2125013        107.9175
4.8506                 0.2141728        107.1727        0.2450943        45.56742        0.2450943        45.56744        0.2141736        107.1727
4.852                  0.2157458        106.4243        0.2456399        44.57444          0.24564        44.57446        0.2157466        106.4243
4.8534                 0.2172213         105.673        0.2460697        43.58132        0.2460698        43.58134        0.2172219         105.673
4.8548                 0.2186009        104.9195        0.2463843        42.58887        0.2463844        42.58889        0.2186016        104.9195
4.8562                 0.2198869        104.1644        0.2465846        41.59786        0.2465847        41.59788        0.2198876        104.1644
4.8576                 0.2210811        103.4081        0.2466717        40.60907        0.2466717        40.60909        0.2210817        103.4081
4.859                  0.2221858        102.6511        0.2466467        39.62325        0.2466468        39.62326        0.2221863        102.6511
4.8604                  0.223203        101.8938        0.2465112        38.64112        0.2465113        38.64113        0.2232035        101.8938
4.8618                  0.224135        101.1367        0.2462668        37.66341        0.2462669        37.66343        0.2241356        101.1367
4.8632                 0.2249842        100.3799        0.2459154        36.69083        0.2459155        36.69084        0.2249847        100.3799
4.8646                 0.2257528        99.62383        0.2454589        35.72407         0.245459        35.72408        0.2257532        99.62383
4.866                  0.2264431        98.86864        0.2448996        34.76381        0.2448997        34.76382        0.2264435        98.86864
4.8674                 0.2270575        98.11452        0.2442398        33.81072        0.2442399        33.81074        0.2270579        98.11453
4.8688                 0.2275984        97.36164         0.243482        32.86547        0.2434821        32.86548        0.2275988        97.36163
4.8702                 0.2280681        96.61006        0.2426288        31.92869        0.2426289         31.9287        0.2280684        96.61007
4.8716                 0.2284689        95.85988        0.2416831        31.00102        0.2416832        31.00104        0.2284692        95.85989